# Wall shear stress
# Time          	patch           	min             	max             
2651            	walls	(-3.07541344e-01 -1.33044758e-18 -1.37937410e-01)	(6.87728024e-02 1.11417083e-18 1.32556900e-01)
2651            	top	(-2.00509735e-04 -3.50642274e-21 -8.94129013e-04)	(7.81939848e-05 4.06589190e-21 1.86301862e-03)
