# Wall shear stress
# Time          	patch           	min             	max             
100             	walls	(-3.06374870e-01 -5.85002056e-18 -1.31558050e-01)	(6.48881470e-02 3.47374123e-18 1.28119396e-01)
100             	top	(-4.34565758e-05 -5.80224957e-22 -1.43124815e-04)	(1.66048464e-05 5.02085316e-22 3.51819765e-04)
200             	walls	(-3.06470241e-01 -5.85123416e-18 -1.31539663e-01)	(6.55871902e-02 3.47467013e-18 1.28868509e-01)
200             	top	(-4.34372067e-05 -5.80146786e-22 -1.43109389e-04)	(1.66074993e-05 5.02568294e-22 3.51673219e-04)
300             	walls	(-3.06470291e-01 -5.85127043e-18 -1.31539651e-01)	(6.55871038e-02 3.47468952e-18 1.28868268e-01)
300             	top	(-4.34372570e-05 -5.80149556e-22 -1.43109513e-04)	(1.66075125e-05 5.02569642e-22 3.51673516e-04)
400             	walls	(-3.06470288e-01 -5.85127075e-18 -1.31539650e-01)	(6.55871039e-02 3.47468969e-18 1.28868268e-01)
400             	top	(-4.34372569e-05 -5.80149540e-22 -1.43109512e-04)	(1.66075123e-05 5.02569629e-22 3.51673514e-04)
