/*--------------------------------*- C++ -*----------------------------------*\
| =========                 |                                                 |
| \\      /  F ield         | OpenFOAM: The Open Source CFD Toolbox           |
|  \\    /   O peration     | Version:  2112                                  |
|   \\  /    A nd           | Website:  www.openfoam.com                      |
|    \\/     M anipulation  |                                                 |
\*---------------------------------------------------------------------------*/
FoamFile
{
    version     2.0;
    format      ascii;
    arch        "LSB;label=32;scalar=64";
    class       volScalarField;
    location    "5000";
    object      k;
}
// * * * * * * * * * * * * * * * * * * * * * * * * * * * * * * * * * * * * * //

dimensions      [0 2 -2 0 0 0 0];

internalField   nonuniform List<scalar> 
208896
(
0.0010152414
0.0010152415
0.0010152425
0.0010152442
0.0010152466
0.0010152497
0.0010152535
0.001015258
0.0010152633
0.0010152692
0.0010152759
0.0010152833
0.0010152914
0.0010153003
0.0010153099
0.0010153203
0.0010153314
0.0010153433
0.001015356
0.0010153694
0.0010153836
0.0010153986
0.0010154145
0.0010154311
0.0010154485
0.0010154668
0.0010154859
0.0010155058
0.0010155265
0.0010155481
0.0010155705
0.0010155937
0.0010156178
0.0010156427
0.0010156684
0.0010156949
0.0010157223
0.0010157504
0.0010157794
0.0010158091
0.0010158396
0.0010158708
0.0010159028
0.0010159355
0.0010159689
0.0010160029
0.0010160376
0.0010160728
0.0010161086
0.001016145
0.0010161818
0.001016219
0.0010162567
0.0010162946
0.0010163329
0.0010163714
0.00101641
0.0010164488
0.0010164875
0.0010165263
0.0010165649
0.0010166034
0.0010166416
0.0010166795
0.0010167169
0.0010167539
0.0010167902
0.001016826
0.0010168609
0.0010168951
0.0010169283
0.0010169605
0.0010169917
0.0010170218
0.0010170506
0.0010170781
0.0010171043
0.0010171291
0.0010171524
0.0010171742
0.0010171945
0.0010172132
0.0010172303
0.0010172458
0.0010172597
0.001017272
0.0010172827
0.0010172918
0.0010172994
0.0010173056
0.0010173103
0.0010173137
0.0010173158
0.0010173168
0.0010173166
0.0010173155
0.0010173134
0.0010173107
0.0010173072
0.0010173032
0.0010172988
0.0010172941
0.0010172891
0.0010172841
0.0010172791
0.0010172742
0.0010172695
0.001017265
0.0010172609
0.0010172571
0.0010172538
0.0010172509
0.0010172484
0.0010172465
0.001017245
0.001017244
0.0010172435
0.0010172433
0.0010172436
0.0010172442
0.0010172451
0.0010172462
0.0010172477
0.0010172493
0.0010172511
0.001017253
0.001017255
0.0010172571
0.0010172593
0.0010172615
0.0010172638
0.001017266
0.0010172683
0.0010172706
0.0010172729
0.0010172751
0.0010172773
0.0010172795
0.0010172817
0.0010172837
0.0010172857
0.0010172876
0.0010172893
0.0010172909
0.0010172923
0.0010172934
0.0010172944
0.0010172951
0.0010172954
0.0010172955
0.0010172952
0.0010172946
0.0010172935
0.0010172921
0.0010172904
0.0010172882
0.0010172857
0.0010172828
0.0010172797
0.0010172763
0.0010172727
0.0010172691
0.0010172653
0.0010172616
0.001017258
0.0010172546
0.0010172514
0.0010172484
0.0010172457
0.0010172433
0.0010172411
0.0010172392
0.0010172374
0.0010172357
0.0010172339
0.0010172322
0.0010172303
0.0010172282
0.0010172261
0.0010172237
0.0010172213
0.0010172188
0.0010172162
0.0010172137
0.0010172113
0.0010172091
0.001017207
0.0010172052
0.0010172037
0.0010172024
0.0010172016
0.001017201
0.0010172008
0.0010172009
0.0010172011
0.0010172015
0.0010172018
0.0010172021
0.0010172025
0.0010172029
0.0010172035
0.0010172043
0.0010172053
0.0010172062
0.0010172067
0.0010172065
0.0010172055
0.0010172037
0.0010172018
0.0010172001
0.0010171989
0.0010171985
0.0010171985
0.0010171987
0.001017199
0.0010171993
0.0010171996
0.0010171997
0.0010171998
0.0010171998
0.0010171997
0.0010171996
0.0010171995
0.0010171993
0.0010171991
0.001017199
0.001017199
0.0010171992
0.0010171993
0.0010171993
0.0010171994
0.0010171997
0.0010171999
0.001017199
0.0010171964
0.0010171925
0.0010171889
0.0010171866
0.0010171857
0.0010171859
0.0010171867
0.001017188
0.0010171898
0.0010171923
0.0010171951
0.0010171972
0.0010171982
0.0010171984
0.0010171983
0.0010171981
0.0010171981
0.0010171981
0.0010171979
0.0010171974
0.0010171966
0.001017196
0.001017196
0.0010171966
0.0010171974
0.001017198
0.0010171985
0.0010171988
0.0010171989
0.0010171989
0.0010171989
0.0010171989
0.0010171988
0.0010171986
0.0010171982
0.0010171978
0.0010171977
0.0010171979
0.0010171981
0.0010171983
0.0010171983
0.0010171983
0.0010171983
0.0010171983
0.0010171983
0.0010171983
0.0010171983
0.0010171984
0.0010171983
0.0010171983
0.0010171983
0.0010171983
0.0010171983
0.0010171983
0.0010171983
0.0010171983
0.0010171984
0.0010171983
0.0010171983
0.0010171983
0.0010171983
0.0010171983
0.0010171983
0.0010171983
0.0010171983
0.0010171983
0.0010171983
0.0010171984
0.0010171983
0.0010171983
0.0010171983
0.0010171983
0.0010171983
0.0010171983
0.0010171983
0.0010171983
0.0010171983
0.0010171983
0.0010171983
0.0010171983
0.0010171983
0.0010171983
0.0010171983
0.0010171983
0.0010171983
0.0010171983
0.0010171983
0.0010171983
0.0010171983
0.0010171983
0.0010171983
0.0010171983
0.0010171983
0.0010171983
0.0010171983
0.0010171983
0.0010171983
0.0010171983
0.0010171983
0.0010171983
0.0010171983
0.0010171983
0.0010171983
0.0010171983
0.0010171983
0.0010171983
0.0010171983
0.0010171983
0.0010171983
0.0010171983
0.0010171983
0.0010171983
0.0010171983
0.0010171983
0.0010171983
0.0010171983
0.0010171983
0.0010171983
0.0010171983
0.0010171983
0.0010171983
0.0010171983
0.0010171983
0.0010171983
0.0010171983
0.0010171983
0.0010171983
0.0010171983
0.0010171983
0.0010171983
0.0010171983
0.0010171983
0.0010171983
0.0010171984
0.0010171984
0.0010171984
0.0010171983
0.0010171984
0.0010171984
0.0010171983
0.0010171984
0.0010171984
0.0010171984
0.0010171984
0.0010171984
0.0010171984
0.0010171983
0.0010171983
0.0010171984
0.0010171984
0.00091514207
0.0009151422
0.00091514172
0.00091514079
0.00091513939
0.00091513753
0.00091513523
0.00091513248
0.00091512929
0.00091512567
0.00091512162
0.00091511715
0.00091511228
0.00091510701
0.00091510136
0.00091509533
0.00091508895
0.00091508222
0.00091507518
0.00091506783
0.00091506019
0.0009150523
0.00091504417
0.00091503584
0.00091502732
0.00091501866
0.00091500988
0.00091500103
0.00091499213
0.00091498323
0.00091497437
0.0009149656
0.00091495697
0.00091494852
0.00091494031
0.0009149324
0.00091492484
0.00091491769
0.00091491102
0.00091490489
0.00091489938
0.00091489454
0.00091489045
0.00091488719
0.00091488484
0.00091488346
0.00091488313
0.00091488394
0.00091488596
0.00091488928
0.00091489396
0.00091490009
0.00091490774
0.000914917
0.00091492792
0.00091494059
0.00091495506
0.0009149714
0.00091498967
0.00091500991
0.00091503218
0.0009150565
0.00091508292
0.00091511145
0.00091514211
0.00091517489
0.0009152098
0.00091524681
0.00091528589
0.00091532701
0.00091537009
0.00091541508
0.00091546189
0.00091551042
0.00091556057
0.0009156122
0.00091566518
0.00091571935
0.00091577455
0.0009158306
0.00091588732
0.00091594449
0.0009160019
0.00091605936
0.00091611661
0.00091617345
0.00091622964
0.00091628495
0.00091633915
0.00091639201
0.00091644332
0.00091649288
0.00091654048
0.00091658595
0.00091662913
0.00091666986
0.00091670804
0.00091674355
0.00091677634
0.00091680634
0.00091683354
0.00091685795
0.0009168796
0.00091689854
0.00091691488
0.0009169287
0.00091694016
0.00091694938
0.00091695655
0.00091696184
0.00091696543
0.00091696752
0.0009169683
0.00091696796
0.00091696669
0.00091696466
0.00091696204
0.00091695897
0.0009169556
0.00091695203
0.00091694836
0.00091694466
0.000916941
0.00091693742
0.00091693394
0.00091693058
0.00091692734
0.00091692421
0.00091692119
0.00091691826
0.0009169154
0.0009169126
0.00091690984
0.00091690711
0.00091690441
0.00091690173
0.00091689908
0.00091689647
0.00091689391
0.00091689143
0.00091688904
0.00091688679
0.00091688469
0.00091688278
0.0009168811
0.00091687968
0.00091687855
0.00091687777
0.00091687735
0.00091687734
0.00091687775
0.00091687862
0.00091687995
0.00091688176
0.00091688403
0.00091688676
0.00091688992
0.00091689346
0.00091689733
0.00091690146
0.00091690578
0.00091691019
0.0009169146
0.00091691893
0.00091692307
0.00091692695
0.00091693051
0.00091693372
0.00091693654
0.00091693901
0.00091694116
0.00091694305
0.00091694479
0.00091694647
0.00091694819
0.00091695004
0.0009169521
0.00091695439
0.00091695695
0.00091695973
0.0009169627
0.00091696578
0.00091696891
0.000916972
0.00091697498
0.00091697779
0.00091698037
0.00091698266
0.0009169846
0.00091698615
0.00091698726
0.00091698794
0.00091698818
0.00091698808
0.00091698773
0.00091698724
0.00091698674
0.00091698628
0.00091698582
0.00091698528
0.00091698454
0.00091698353
0.00091698234
0.00091698125
0.0009169807
0.00091698107
0.00091698251
0.00091698476
0.00091698725
0.00091698935
0.00091699067
0.00091699119
0.00091699114
0.0009169908
0.00091699039
0.00091699002
0.00091698974
0.00091698957
0.0009169895
0.00091698952
0.00091698959
0.00091698972
0.0009169899
0.00091699013
0.00091699039
0.00091699057
0.00091699052
0.00091699029
0.0009169901
0.0009169901
0.00091699003
0.00091698966
0.00091698944
0.00091699046
0.00091699349
0.00091699815
0.00091700248
0.00091700515
0.0009170061
0.00091700587
0.0009170049
0.00091700343
0.0009170013
0.00091699837
0.00091699515
0.00091699259
0.00091699139
0.00091699115
0.00091699136
0.00091699157
0.00091699161
0.0009169916
0.00091699179
0.00091699242
0.00091699335
0.00091699401
0.00091699404
0.00091699334
0.0009169924
0.00091699162
0.00091699105
0.00091699072
0.0009169906
0.00091699058
0.00091699057
0.00091699059
0.00091699067
0.000916991
0.00091699148
0.00091699187
0.00091699201
0.00091699182
0.00091699154
0.00091699136
0.00091699128
0.00091699126
0.00091699125
0.00091699125
0.00091699125
0.00091699125
0.00091699125
0.00091699125
0.00091699125
0.00091699125
0.00091699125
0.00091699125
0.00091699125
0.00091699125
0.00091699125
0.00091699125
0.00091699125
0.00091699125
0.00091699125
0.00091699126
0.00091699126
0.00091699126
0.00091699126
0.00091699126
0.00091699126
0.00091699126
0.00091699126
0.00091699126
0.00091699126
0.00091699126
0.00091699126
0.00091699127
0.00091699127
0.00091699127
0.00091699127
0.00091699127
0.00091699127
0.00091699127
0.00091699128
0.00091699128
0.00091699128
0.00091699128
0.00091699128
0.00091699128
0.00091699128
0.00091699129
0.00091699129
0.00091699129
0.00091699129
0.00091699129
0.00091699129
0.0009169913
0.0009169913
0.0009169913
0.0009169913
0.00091699131
0.00091699131
0.00091699131
0.00091699131
0.00091699132
0.00091699132
0.00091699132
0.00091699132
0.00091699132
0.00091699132
0.00091699133
0.00091699133
0.00091699133
0.00091699133
0.00091699133
0.00091699133
0.00091699134
0.00091699134
0.00091699134
0.00091699134
0.00091699134
0.00091699134
0.00091699134
0.00091699134
0.00091699134
0.00091699134
0.00091699134
0.00091699134
0.00091699134
0.00091699134
0.00091699134
0.00091699134
0.00091699134
0.00091699134
0.00091699134
0.00091699134
0.00091699134
0.00091699134
0.00091699134
0.00091699134
0.00091699134
0.00091699134
0.00091699134
0.00091699134
0.00091699134
0.00091699134
0.00091699134
0.00091699134
0.00091699134
0.00091699134
0.00091699134
0.00091699134
0.00091699134
0.00091699134
0.00091699134
0.00084494951
0.00084494885
0.00084494366
0.00084493461
0.00084492172
0.000844905
0.00084488444
0.00084486004
0.00084483178
0.00084479965
0.00084476363
0.00084472371
0.00084467987
0.0008446321
0.00084458038
0.00084452468
0.000844465
0.00084440132
0.00084433362
0.00084426189
0.00084418612
0.0008441063
0.00084402243
0.0008439345
0.00084384252
0.00084374649
0.00084364643
0.00084354234
0.00084343426
0.0008433222
0.00084320621
0.00084308633
0.0008429626
0.00084283509
0.00084270386
0.00084256898
0.00084243055
0.00084228866
0.00084214341
0.00084199493
0.00084184334
0.00084168877
0.00084153139
0.00084137135
0.00084120884
0.00084104404
0.00084087714
0.00084070838
0.00084053797
0.00084036615
0.00084019318
0.00084001932
0.00083984485
0.00083967005
0.00083949522
0.00083932068
0.00083914674
0.00083897373
0.00083880199
0.00083863186
0.00083846368
0.00083829782
0.00083813462
0.00083797445
0.00083781765
0.00083766459
0.00083751561
0.00083737106
0.00083723126
0.00083709655
0.00083696723
0.0008368436
0.00083672593
0.00083661448
0.00083650949
0.00083641115
0.00083631965
0.00083623514
0.00083615772
0.00083608749
0.00083602448
0.00083596871
0.00083592013
0.00083587868
0.00083584423
0.00083581665
0.00083579571
0.0008357812
0.00083577282
0.00083577027
0.0008357732
0.00083578122
0.00083579392
0.00083581087
0.0008358316
0.00083585565
0.00083588252
0.00083591172
0.00083594277
0.00083597517
0.00083600846
0.00083604217
0.00083607589
0.0008361092
0.00083614174
0.00083617317
0.00083620322
0.00083623163
0.00083625822
0.00083628283
0.00083630536
0.00083632577
0.00083634404
0.00083636021
0.00083637435
0.00083638657
0.000836397
0.0008364058
0.00083641314
0.0008364192
0.00083642417
0.00083642823
0.00083643155
0.00083643431
0.00083643665
0.00083643872
0.00083644061
0.00083644243
0.00083644425
0.00083644612
0.00083644809
0.00083645016
0.00083645236
0.00083645466
0.00083645705
0.00083645952
0.00083646204
0.00083646457
0.00083646708
0.00083646955
0.00083647192
0.00083647418
0.00083647628
0.00083647818
0.00083647985
0.00083648126
0.00083648236
0.00083648312
0.00083648351
0.0008364835
0.00083648305
0.00083648215
0.00083648079
0.00083647896
0.00083647666
0.00083647392
0.00083647076
0.00083646722
0.00083646337
0.00083645928
0.00083645503
0.00083645071
0.00083644641
0.00083644223
0.00083643826
0.00083643457
0.00083643123
0.00083642827
0.00083642569
0.00083642348
0.00083642159
0.00083641993
0.00083641841
0.00083641693
0.00083641538
0.00083641366
0.00083641171
0.00083640949
0.00083640699
0.00083640425
0.0008364013
0.00083639823
0.00083639512
0.00083639204
0.00083638906
0.00083638625
0.00083638367
0.00083638138
0.00083637943
0.00083637788
0.00083637677
0.00083637612
0.00083637588
0.00083637601
0.00083637638
0.00083637687
0.00083637739
0.00083637788
0.00083637835
0.0008363789
0.00083637964
0.00083638064
0.00083638181
0.00083638286
0.00083638337
0.00083638295
0.00083638147
0.00083637919
0.0008363767
0.00083637463
0.00083637334
0.00083637286
0.00083637294
0.00083637329
0.0008363737
0.00083637407
0.00083637435
0.00083637451
0.00083637457
0.00083637454
0.00083637446
0.00083637433
0.00083637414
0.00083637391
0.00083637366
0.00083637348
0.00083637353
0.00083637376
0.00083637395
0.00083637395
0.00083637401
0.00083637438
0.0008363746
0.00083637361
0.00083637065
0.00083636609
0.00083636186
0.00083635928
0.00083635837
0.0008363586
0.00083635955
0.00083636098
0.00083636304
0.00083636589
0.00083636903
0.00083637153
0.0008363727
0.00083637293
0.00083637272
0.00083637252
0.00083637248
0.00083637249
0.00083637231
0.00083637169
0.00083637078
0.00083637014
0.00083637011
0.00083637079
0.00083637171
0.00083637247
0.00083637303
0.00083637335
0.00083637347
0.00083637349
0.00083637349
0.00083637348
0.0008363734
0.00083637308
0.00083637261
0.00083637224
0.0008363721
0.00083637229
0.00083637256
0.00083637274
0.00083637282
0.00083637284
0.00083637285
0.00083637285
0.00083637285
0.00083637285
0.00083637286
0.00083637286
0.00083637286
0.00083637286
0.00083637286
0.00083637286
0.00083637286
0.00083637287
0.00083637287
0.00083637287
0.00083637287
0.00083637287
0.00083637287
0.00083637288
0.00083637288
0.00083637288
0.00083637288
0.00083637289
0.00083637289
0.00083637289
0.0008363729
0.0008363729
0.0008363729
0.00083637291
0.00083637291
0.00083637291
0.00083637292
0.00083637292
0.00083637293
0.00083637293
0.00083637294
0.00083637294
0.00083637295
0.00083637295
0.00083637296
0.00083637296
0.00083637297
0.00083637298
0.00083637298
0.00083637299
0.000836373
0.000836373
0.00083637301
0.00083637302
0.00083637303
0.00083637303
0.00083637304
0.00083637305
0.00083637306
0.00083637307
0.00083637307
0.00083637308
0.00083637309
0.0008363731
0.00083637311
0.00083637311
0.00083637312
0.00083637313
0.00083637314
0.00083637314
0.00083637315
0.00083637316
0.00083637316
0.00083637317
0.00083637317
0.00083637318
0.00083637318
0.00083637319
0.00083637319
0.0008363732
0.0008363732
0.0008363732
0.00083637321
0.00083637321
0.00083637321
0.00083637321
0.00083637321
0.00083637322
0.00083637322
0.00083637322
0.00083637322
0.00083637322
0.00083637322
0.00083637322
0.00083637322
0.00083637322
0.00083637322
0.00083637322
0.00083637321
0.00083637321
0.00083637321
0.00083637321
0.00083637321
0.00083637321
0.00083637321
0.00083637321
0.00083637321
0.00083637321
0.00083637321
0.00083637321
0.0008363732
0.0008363732
0.0008363732
0.0008363732
0.0007965564
0.00079655459
0.00079654379
0.00079652524
0.00079649897
0.00079646498
0.00079642326
0.00079637376
0.00079631645
0.00079625128
0.0007961782
0.00079609715
0.00079600808
0.00079591091
0.00079580558
0.00079569201
0.00079557014
0.00079543988
0.00079530117
0.00079515392
0.00079499805
0.00079483351
0.0007946602
0.00079447805
0.00079428701
0.00079408701
0.00079387799
0.0007936599
0.00079343269
0.00079319632
0.00079295078
0.00079269603
0.00079243207
0.00079215891
0.00079187656
0.00079158505
0.00079128443
0.00079097475
0.0007906561
0.00079032857
0.00078999227
0.00078964733
0.00078929392
0.0007889322
0.00078856237
0.00078818466
0.00078779931
0.00078740659
0.00078700679
0.00078660024
0.00078618729
0.00078576831
0.0007853437
0.00078491391
0.00078447937
0.00078404059
0.00078359808
0.00078315238
0.00078270406
0.00078225372
0.00078180197
0.00078134946
0.00078089687
0.00078044487
0.00077999419
0.00077954555
0.00077909969
0.00077865736
0.00077821935
0.00077778641
0.00077735933
0.00077693889
0.00077652586
0.000776121
0.00077572507
0.00077533882
0.00077496294
0.00077459815
0.00077424508
0.00077390437
0.0007735766
0.0007732623
0.00077296195
0.00077267599
0.00077240476
0.00077214858
0.00077190766
0.00077168218
0.0007714722
0.00077127772
0.00077109868
0.0007709349
0.00077078614
0.00077065208
0.00077053232
0.00077042638
0.0007703337
0.00077025367
0.0007701856
0.00077012876
0.00077008236
0.00077004558
0.00077001757
0.00076999745
0.00076998433
0.00076997735
0.00076997563
0.00076997832
0.00076998461
0.00076999372
0.00077000494
0.00077001759
0.00077003108
0.00077004488
0.00077005852
0.00077007163
0.00077008388
0.00077009504
0.00077010494
0.00077011348
0.00077012059
0.00077012628
0.00077013061
0.00077013364
0.00077013548
0.00077013626
0.0007701361
0.00077013515
0.00077013355
0.00077013142
0.00077012888
0.00077012603
0.00077012297
0.00077011978
0.00077011651
0.00077011323
0.00077010997
0.00077010678
0.00077010367
0.00077010069
0.00077009786
0.00077009521
0.00077009277
0.00077009057
0.00077008865
0.00077008706
0.00077008582
0.00077008497
0.00077008457
0.00077008464
0.00077008521
0.00077008631
0.00077008796
0.00077009015
0.00077009288
0.00077009612
0.00077009984
0.00077010397
0.00077010845
0.00077011319
0.00077011808
0.00077012302
0.00077012789
0.00077013257
0.00077013697
0.00077014099
0.00077014457
0.00077014767
0.00077015029
0.00077015248
0.00077015429
0.00077015584
0.00077015725
0.00077015865
0.00077016017
0.00077016193
0.00077016401
0.00077016645
0.00077016926
0.0007701724
0.00077017579
0.00077017934
0.00077018296
0.00077018655
0.00077019002
0.0007701933
0.00077019632
0.00077019901
0.0007702013
0.00077020312
0.00077020443
0.00077020521
0.00077020547
0.00077020531
0.00077020484
0.0007702042
0.00077020354
0.00077020293
0.00077020236
0.00077020171
0.00077020084
0.00077019969
0.00077019835
0.00077019716
0.00077019662
0.00077019718
0.00077019899
0.0007702017
0.00077020464
0.00077020704
0.00077020849
0.000770209
0.00077020888
0.00077020845
0.00077020796
0.00077020752
0.00077020721
0.00077020703
0.00077020698
0.00077020702
0.00077020713
0.00077020729
0.0007702075
0.00077020777
0.00077020807
0.00077020827
0.00077020822
0.00077020793
0.00077020771
0.00077020772
0.00077020765
0.00077020723
0.00077020696
0.00077020807
0.00077021143
0.0007702166
0.00077022137
0.00077022426
0.00077022526
0.00077022498
0.00077022391
0.0007702223
0.00077022
0.00077021681
0.00077021327
0.00077021045
0.00077020913
0.00077020887
0.0007702091
0.00077020934
0.00077020938
0.00077020938
0.00077020958
0.00077021027
0.0007702113
0.00077021203
0.00077021206
0.0007702113
0.00077021026
0.0007702094
0.00077020877
0.00077020841
0.00077020827
0.00077020825
0.00077020825
0.00077020827
0.00077020837
0.00077020873
0.00077020925
0.00077020968
0.00077020984
0.00077020962
0.00077020931
0.00077020911
0.00077020903
0.000770209
0.000770209
0.000770209
0.000770209
0.000770209
0.000770209
0.000770209
0.00077020901
0.00077020901
0.00077020901
0.00077020902
0.00077020902
0.00077020902
0.00077020903
0.00077020903
0.00077020904
0.00077020904
0.00077020905
0.00077020905
0.00077020906
0.00077020906
0.00077020907
0.00077020907
0.00077020908
0.00077020909
0.00077020909
0.0007702091
0.00077020911
0.00077020912
0.00077020913
0.00077020914
0.00077020915
0.00077020916
0.00077020916
0.00077020918
0.00077020919
0.0007702092
0.00077020921
0.00077020923
0.00077020924
0.00077020925
0.00077020927
0.00077020928
0.00077020929
0.00077020931
0.00077020932
0.00077020934
0.00077020936
0.00077020938
0.00077020939
0.00077020941
0.00077020943
0.00077020944
0.00077020946
0.00077020948
0.0007702095
0.00077020952
0.00077020953
0.00077020955
0.00077020957
0.00077020959
0.0007702096
0.00077020962
0.00077020964
0.00077020965
0.00077020967
0.00077020968
0.0007702097
0.00077020971
0.00077020972
0.00077020973
0.00077020974
0.00077020975
0.00077020976
0.00077020977
0.00077020978
0.00077020979
0.00077020979
0.0007702098
0.0007702098
0.00077020981
0.00077020981
0.00077020981
0.00077020981
0.00077020981
0.00077020982
0.00077020982
0.00077020982
0.00077020982
0.00077020981
0.00077020981
0.00077020981
0.00077020981
0.00077020981
0.00077020981
0.0007702098
0.0007702098
0.0007702098
0.0007702098
0.00077020979
0.00077020979
0.00077020979
0.00077020979
0.00077020979
0.00077020979
0.00077020978
0.00077020978
0.00077020978
0.00077020978
0.00076248168
0.00076247869
0.00076246273
0.00076243551
0.00076239708
0.00076234743
0.00076228651
0.00076221427
0.00076213063
0.00076203553
0.00076192885
0.00076181051
0.0007616804
0.00076153838
0.00076138435
0.00076121817
0.00076103971
0.00076084881
0.00076064534
0.00076042914
0.00076020006
0.00075995796
0.00075970267
0.00075943404
0.00075915192
0.00075885616
0.00075854661
0.00075822314
0.00075788561
0.00075753389
0.00075716786
0.00075678742
0.00075639246
0.00075598292
0.0007555587
0.00075511977
0.00075466607
0.0007541976
0.00075371436
0.00075321636
0.00075270365
0.0007521763
0.00075163441
0.00075107809
0.00075050751
0.00074992285
0.00074932431
0.00074871215
0.00074808665
0.00074744814
0.00074679696
0.00074613352
0.00074545824
0.00074477162
0.00074407416
0.00074336644
0.00074264905
0.00074192264
0.00074118792
0.00074044562
0.00073969653
0.00073894147
0.00073818132
0.000737417
0.00073664945
0.0007358797
0.00073510876
0.00073433773
0.0007335677
0.00073279982
0.00073203527
0.00073127524
0.00073052094
0.00072977362
0.00072903451
0.00072830488
0.00072758596
0.00072687902
0.00072618529
0.00072550598
0.00072484228
0.00072419536
0.00072356632
0.00072295623
0.00072236611
0.00072179688
0.00072124943
0.00072072453
0.00072022289
0.0007197451
0.00071929166
0.00071886296
0.00071845926
0.00071808073
0.00071772738
0.00071739911
0.00071709571
0.00071681681
0.00071656194
0.00071633049
0.00071612174
0.00071593486
0.00071576892
0.00071562288
0.00071549563
0.00071538598
0.0007152927
0.00071521448
0.00071515002
0.000715098
0.00071505708
0.00071502596
0.00071500339
0.00071498812
0.00071497902
0.000714975
0.00071497506
0.0007149783
0.00071498391
0.00071499119
0.00071499954
0.00071500846
0.00071501754
0.00071502648
0.00071503504
0.00071504307
0.00071505048
0.00071505724
0.00071506336
0.00071506886
0.00071507383
0.00071507831
0.00071508241
0.00071508618
0.0007150897
0.00071509302
0.00071509619
0.00071509923
0.00071510216
0.00071510497
0.00071510765
0.00071511019
0.00071511254
0.00071511467
0.00071511654
0.0007151181
0.0007151193
0.00071512011
0.00071512047
0.00071512035
0.00071511972
0.00071511855
0.00071511684
0.00071511457
0.00071511176
0.00071510845
0.00071510467
0.00071510048
0.00071509597
0.00071509124
0.00071508638
0.00071508151
0.00071507676
0.00071507224
0.00071506806
0.0007150643
0.00071506103
0.00071505826
0.000715056
0.00071505419
0.00071505275
0.00071505155
0.00071505047
0.00071504936
0.00071504807
0.00071504648
0.00071504453
0.00071504217
0.0007150394
0.00071503628
0.00071503288
0.00071502931
0.00071502566
0.00071502205
0.00071501855
0.00071501525
0.0007150122
0.00071500948
0.00071500716
0.00071500532
0.00071500401
0.00071500326
0.00071500302
0.00071500321
0.00071500372
0.00071500438
0.00071500506
0.0007150057
0.00071500631
0.00071500698
0.00071500785
0.00071500899
0.00071501031
0.00071501147
0.00071501196
0.00071501132
0.00071500943
0.00071500664
0.00071500368
0.00071500129
0.00071499989
0.00071499942
0.00071499959
0.00071500004
0.00071500054
0.00071500097
0.00071500128
0.00071500146
0.0007150015
0.00071500143
0.00071500131
0.00071500115
0.00071500093
0.00071500066
0.00071500037
0.00071500017
0.00071500022
0.00071500051
0.00071500074
0.00071500072
0.00071500078
0.0007150012
0.00071500148
0.0007150004
0.00071499711
0.00071499204
0.00071498738
0.00071498459
0.00071498364
0.00071498393
0.00071498498
0.00071498653
0.00071498876
0.00071499186
0.00071499532
0.00071499808
0.00071499936
0.00071499962
0.00071499939
0.00071499916
0.00071499911
0.00071499912
0.00071499892
0.00071499825
0.00071499725
0.00071499654
0.00071499651
0.00071499726
0.00071499826
0.00071499911
0.00071499973
0.00071500008
0.00071500022
0.00071500024
0.00071500024
0.00071500023
0.00071500013
0.00071499979
0.00071499928
0.00071499887
0.00071499872
0.00071499894
0.00071499925
0.00071499945
0.00071499953
0.00071499956
0.00071499957
0.00071499958
0.00071499958
0.00071499958
0.00071499959
0.0007149996
0.0007149996
0.0007149996
0.00071499961
0.00071499961
0.00071499962
0.00071499963
0.00071499963
0.00071499964
0.00071499965
0.00071499966
0.00071499966
0.00071499967
0.00071499968
0.00071499969
0.0007149997
0.00071499971
0.00071499973
0.00071499974
0.00071499975
0.00071499977
0.00071499978
0.00071499979
0.00071499981
0.00071499982
0.00071499984
0.00071499986
0.00071499988
0.00071499989
0.00071499992
0.00071499994
0.00071499996
0.00071499998
0.000715
0.00071500003
0.00071500005
0.00071500007
0.0007150001
0.00071500013
0.00071500016
0.00071500018
0.00071500022
0.00071500024
0.00071500028
0.0007150003
0.00071500034
0.00071500037
0.0007150004
0.00071500043
0.00071500046
0.00071500049
0.00071500052
0.00071500055
0.00071500059
0.00071500062
0.00071500065
0.00071500067
0.0007150007
0.00071500073
0.00071500076
0.00071500078
0.00071500081
0.00071500083
0.00071500085
0.00071500087
0.00071500089
0.00071500091
0.00071500093
0.00071500094
0.00071500095
0.00071500097
0.00071500098
0.00071500099
0.00071500099
0.000715001
0.00071500101
0.00071500101
0.00071500102
0.00071500102
0.00071500102
0.00071500102
0.00071500102
0.00071500102
0.00071500102
0.00071500101
0.00071500101
0.00071500101
0.00071500101
0.000715001
0.000715001
0.000715001
0.00071500099
0.00071500099
0.00071500099
0.00071500098
0.00071500098
0.00071500098
0.00071500097
0.00071500097
0.00071500097
0.00071500097
0.00071500097
0.00071500096
0.00073763186
0.00073762781
0.00073760748
0.00073757297
0.00073752433
0.00073746153
0.00073738453
0.00073729324
0.00073718755
0.00073706737
0.00073693254
0.00073678295
0.00073661842
0.00073643879
0.0007362439
0.00073603354
0.00073580752
0.00073556564
0.00073530769
0.00073503343
0.00073474266
0.00073443514
0.00073411064
0.00073376891
0.00073340974
0.00073303287
0.00073263808
0.00073222514
0.00073179381
0.00073134389
0.00073087515
0.00073038739
0.00072988041
0.00072935404
0.00072880811
0.00072824247
0.00072765697
0.00072705151
0.00072642598
0.00072578033
0.00072511448
0.00072442844
0.0007237222
0.0007229958
0.00072224932
0.00072148285
0.00072069654
0.00071989057
0.00071906516
0.00071822057
0.00071735711
0.00071647514
0.00071557506
0.00071465732
0.00071372242
0.00071277093
0.00071180346
0.00071082068
0.00070982332
0.00070881217
0.00070778807
0.00070675193
0.00070570472
0.00070464748
0.00070358129
0.0007025073
0.00070142674
0.00070034087
0.00069925102
0.00069815859
0.00069706499
0.00069597174
0.00069488035
0.00069379242
0.00069270955
0.00069163341
0.00069056566
0.00068950802
0.0006884622
0.00068742991
0.0006864129
0.00068541286
0.0006844315
0.00068347048
0.00068253144
0.00068161596
0.00068072556
0.0006798617
0.00067902574
0.00067821898
0.00067744259
0.00067669763
0.00067598503
0.00067530561
0.00067466002
0.00067404877
0.00067347219
0.00067293049
0.00067242366
0.00067195155
0.00067151381
0.00067110993
0.00067073924
0.00067040088
0.00067009385
0.00066981699
0.000669569
0.00066934846
0.00066915384
0.00066898352
0.0006688358
0.00066870892
0.00066860111
0.00066851058
0.00066843553
0.00066837422
0.00066832496
0.0006682861
0.00066825612
0.00066823357
0.00066821711
0.00066820554
0.0006681978
0.00066819295
0.00066819019
0.00066818884
0.00066818834
0.00066818826
0.00066818826
0.00066818811
0.00066818764
0.00066818677
0.00066818546
0.00066818371
0.00066818157
0.00066817909
0.00066817635
0.00066817342
0.00066817039
0.00066816733
0.00066816433
0.00066816144
0.00066815874
0.00066815629
0.00066815415
0.00066815238
0.00066815102
0.00066815013
0.00066814975
0.00066814992
0.00066815068
0.00066815204
0.00066815402
0.00066815663
0.00066815983
0.0006681636
0.00066816789
0.00066817261
0.00066817768
0.00066818298
0.00066818839
0.00066819377
0.00066819899
0.00066820391
0.00066820841
0.0006682124
0.0006682158
0.00066821861
0.00066822084
0.00066822254
0.00066822384
0.00066822487
0.0006682258
0.00066822681
0.00066822804
0.00066822965
0.00066823171
0.00066823427
0.00066823732
0.00066824079
0.00066824458
0.00066824857
0.00066825265
0.00066825671
0.00066826063
0.00066826435
0.00066826778
0.00066827083
0.00066827344
0.00066827552
0.00066827701
0.00066827788
0.00066827814
0.00066827791
0.00066827731
0.00066827651
0.00066827569
0.00066827493
0.00066827423
0.00066827347
0.00066827249
0.00066827122