/*--------------------------------*- C++ -*----------------------------------*\
| =========                 |                                                 |
| \\      /  F ield         | OpenFOAM: The Open Source CFD Toolbox           |
|  \\    /   O peration     | Version:  2112                                  |
|   \\  /    A nd           | Website:  www.openfoam.com                      |
|    \\/     M anipulation  |                                                 |
\*---------------------------------------------------------------------------*/
FoamFile
{
    version     2.0;
    format      ascii;
    arch        "LSB;label=32;scalar=64";
    class       volScalarField;
    location    "5000";
    object      nut;
}
// * * * * * * * * * * * * * * * * * * * * * * * * * * * * * * * * * * * * * //

dimensions      [0 2 -1 0 0 0 0];

internalField   nonuniform List<scalar> 
208896
(
1.2391389e-07
1.2391388e-07
1.2391389e-07
1.239139e-07
1.239139e-07
1.2391391e-07
1.2391392e-07
1.2391392e-07
1.2391393e-07
1.2391393e-07
1.2391393e-07
1.2391394e-07
1.2391394e-07
1.2391394e-07
1.2391393e-07
1.2391393e-07
1.2391393e-07
1.2391392e-07
1.2391391e-07
1.239139e-07
1.2391389e-07
1.2391388e-07
1.2391386e-07
1.2391384e-07
1.2391382e-07
1.2391379e-07
1.2391376e-07
1.2391373e-07
1.239137e-07
1.2391366e-07
1.2391361e-07
1.2391356e-07
1.2391351e-07
1.2391345e-07
1.2391338e-07
1.2391331e-07
1.2391324e-07
1.2391315e-07
1.2391306e-07
1.2391296e-07
1.2391286e-07
1.2391274e-07
1.2391262e-07
1.2391249e-07
1.2391235e-07
1.239122e-07
1.2391204e-07
1.2391187e-07
1.2391169e-07
1.2391149e-07
1.2391129e-07
1.2391108e-07
1.2391085e-07
1.2391061e-07
1.2391036e-07
1.239101e-07
1.2390982e-07
1.2390953e-07
1.2390923e-07
1.2390891e-07
1.2390859e-07
1.2390825e-07
1.2390789e-07
1.2390753e-07
1.2390715e-07
1.2390677e-07
1.2390637e-07
1.2390596e-07
1.2390554e-07
1.2390511e-07
1.2390468e-07
1.2390424e-07
1.2390379e-07
1.2390334e-07
1.2390288e-07
1.2390242e-07
1.2390196e-07
1.239015e-07
1.2390105e-07
1.2390059e-07
1.2390015e-07
1.238997e-07
1.2389927e-07
1.2389885e-07
1.2389844e-07
1.2389805e-07
1.2389767e-07
1.238973e-07
1.2389696e-07
1.2389664e-07
1.2389633e-07
1.2389606e-07
1.238958e-07
1.2389557e-07
1.2389537e-07
1.2389519e-07
1.2389504e-07
1.2389492e-07
1.2389482e-07
1.2389475e-07
1.2389471e-07
1.238947e-07
1.238947e-07
1.2389474e-07
1.2389479e-07
1.2389487e-07
1.2389497e-07
1.2389509e-07
1.2389523e-07
1.2389538e-07
1.2389555e-07
1.2389572e-07
1.2389592e-07
1.2389612e-07
1.2389633e-07
1.2389655e-07
1.2389678e-07
1.2389701e-07
1.2389725e-07
1.2389749e-07
1.2389774e-07
1.23898e-07
1.2389826e-07
1.2389852e-07
1.2389879e-07
1.2389907e-07
1.2389935e-07
1.2389964e-07
1.2389993e-07
1.2390022e-07
1.2390052e-07
1.2390083e-07
1.2390114e-07
1.2390145e-07
1.2390176e-07
1.2390207e-07
1.2390238e-07
1.2390268e-07
1.2390298e-07
1.2390327e-07
1.2390354e-07
1.2390381e-07
1.2390405e-07
1.2390427e-07
1.2390446e-07
1.2390463e-07
1.2390476e-07
1.2390485e-07
1.2390491e-07
1.2390491e-07
1.2390487e-07
1.2390477e-07
1.2390463e-07
1.2390442e-07
1.2390416e-07
1.2390384e-07
1.2390347e-07
1.2390305e-07
1.2390258e-07
1.2390207e-07
1.2390152e-07
1.2390095e-07
1.2390037e-07
1.2389978e-07
1.2389919e-07
1.2389861e-07
1.2389806e-07
1.2389753e-07
1.2389704e-07
1.2389658e-07
1.2389615e-07
1.2389576e-07
1.238954e-07
1.2389505e-07
1.2389473e-07
1.2389441e-07
1.238941e-07
1.2389379e-07
1.2389348e-07
1.2389318e-07
1.2389288e-07
1.2389259e-07
1.2389232e-07
1.2389206e-07
1.2389183e-07
1.2389162e-07
1.2389143e-07
1.2389127e-07
1.2389114e-07
1.2389105e-07
1.2389098e-07
1.2389095e-07
1.2389094e-07
1.2389096e-07
1.2389098e-07
1.23891e-07
1.2389101e-07
1.2389101e-07
1.2389101e-07
1.2389102e-07
1.2389107e-07
1.2389117e-07
1.2389131e-07
1.2389148e-07
1.2389161e-07
1.2389166e-07
1.2389159e-07
1.2389142e-07
1.2389121e-07
1.2389101e-07
1.2389088e-07
1.2389081e-07
1.2389081e-07
1.2389083e-07
1.2389086e-07
1.2389089e-07
1.2389092e-07
1.2389094e-07
1.2389096e-07
1.2389096e-07
1.2389097e-07
1.2389096e-07
1.2389095e-07
1.2389093e-07
1.2389091e-07
1.2389089e-07
1.2389089e-07
1.2389091e-07
1.2389093e-07
1.2389093e-07
1.2389093e-07
1.2389098e-07
1.23891e-07
1.238909e-07
1.2389058e-07
1.2389007e-07
1.2388959e-07
1.2388929e-07
1.2388917e-07
1.2388919e-07
1.2388929e-07
1.2388946e-07
1.238897e-07
1.2389004e-07
1.2389039e-07
1.2389067e-07
1.2389079e-07
1.2389082e-07
1.2389079e-07
1.2389077e-07
1.2389077e-07
1.2389077e-07
1.2389075e-07
1.2389068e-07
1.2389058e-07
1.238905e-07
1.238905e-07
1.2389058e-07
1.2389068e-07
1.2389077e-07
1.2389083e-07
1.2389086e-07
1.2389087e-07
1.2389087e-07
1.2389087e-07
1.2389087e-07
1.2389087e-07
1.2389083e-07
1.2389078e-07
1.2389074e-07
1.2389072e-07
1.2389074e-07
1.2389077e-07
1.2389079e-07
1.2389079e-07
1.238908e-07
1.238908e-07
1.238908e-07
1.238908e-07
1.238908e-07
1.238908e-07
1.238908e-07
1.238908e-07
1.238908e-07
1.238908e-07
1.238908e-07
1.238908e-07
1.238908e-07
1.238908e-07
1.238908e-07
1.238908e-07
1.238908e-07
1.238908e-07
1.238908e-07
1.238908e-07
1.238908e-07
1.238908e-07
1.238908e-07
1.238908e-07
1.238908e-07
1.238908e-07
1.238908e-07
1.238908e-07
1.238908e-07
1.238908e-07
1.238908e-07
1.238908e-07
1.238908e-07
1.238908e-07
1.238908e-07
1.238908e-07
1.238908e-07
1.238908e-07
1.238908e-07
1.238908e-07
1.238908e-07
1.238908e-07
1.238908e-07
1.238908e-07
1.238908e-07
1.238908e-07
1.238908e-07
1.238908e-07
1.238908e-07
1.238908e-07
1.238908e-07
1.238908e-07
1.238908e-07
1.238908e-07
1.238908e-07
1.238908e-07
1.238908e-07
1.238908e-07
1.238908e-07
1.238908e-07
1.238908e-07
1.238908e-07
1.238908e-07
1.238908e-07
1.238908e-07
1.238908e-07
1.238908e-07
1.238908e-07
1.238908e-07
1.238908e-07
1.238908e-07
1.238908e-07
1.238908e-07
1.238908e-07
1.238908e-07
1.238908e-07
1.238908e-07
1.238908e-07
1.238908e-07
1.238908e-07
1.238908e-07
1.238908e-07
1.238908e-07
1.238908e-07
1.238908e-07
1.238908e-07
1.238908e-07
1.238908e-07
1.238908e-07
1.238908e-07
1.238908e-07
1.238908e-07
1.238908e-07
1.238908e-07
1.238908e-07
1.238908e-07
1.238908e-07
1.238908e-07
1.238908e-07
1.238908e-07
1.238908e-07
1.238908e-07
1.238908e-07
1.238908e-07
1.238908e-07
1.238908e-07
1.238908e-07
1.238908e-07
1.238908e-07
1.2279605e-07
1.2279606e-07
1.2279609e-07
1.2279615e-07
1.2279624e-07
1.2279635e-07
1.227965e-07
1.2279669e-07
1.227969e-07
1.2279714e-07
1.2279742e-07
1.2279773e-07
1.2279807e-07
1.2279844e-07
1.2279885e-07
1.2279929e-07
1.2279976e-07
1.2280026e-07
1.228008e-07
1.2280137e-07
1.2280198e-07
1.2280262e-07
1.2280329e-07
1.22804e-07
1.2280474e-07
1.2280552e-07
1.2280633e-07
1.2280718e-07
1.2280806e-07
1.2280897e-07
1.2280992e-07
1.228109e-07
1.2281192e-07
1.2281297e-07
1.2281406e-07
1.2281518e-07
1.2281633e-07
1.2281751e-07
1.2281872e-07
1.2281997e-07
1.2282124e-07
1.2282254e-07
1.2282387e-07
1.2282523e-07
1.2282661e-07
1.2282802e-07
1.2282945e-07
1.228309e-07
1.2283237e-07
1.2283386e-07
1.2283536e-07
1.2283688e-07
1.228384e-07
1.2283994e-07
1.2284148e-07
1.2284303e-07
1.2284458e-07
1.2284613e-07
1.2284767e-07
1.2284921e-07
1.2285073e-07
1.2285224e-07
1.2285374e-07
1.2285521e-07
1.2285667e-07
1.2285809e-07
1.2285949e-07
1.2286085e-07
1.2286217e-07
1.2286346e-07
1.228647e-07
1.228659e-07
1.2286704e-07
1.2286813e-07
1.2286917e-07
1.2287015e-07
1.2287107e-07
1.2287193e-07
1.2287272e-07
1.2287344e-07
1.228741e-07
1.2287469e-07
1.2287521e-07
1.2287566e-07
1.2287604e-07
1.2287635e-07
1.2287659e-07
1.2287677e-07
1.2287688e-07
1.2287693e-07
1.2287692e-07
1.2287685e-07
1.2287672e-07
1.2287655e-07
1.2287632e-07
1.2287606e-07
1.2287575e-07
1.2287542e-07
1.2287505e-07
1.2287466e-07
1.2287425e-07
1.2287382e-07
1.2287338e-07
1.2287293e-07
1.2287249e-07
1.2287204e-07
1.2287159e-07
1.2287115e-07
1.2287072e-07
1.228703e-07
1.2286989e-07
1.2286949e-07
1.2286911e-07
1.2286873e-07
1.2286837e-07
1.2286801e-07
1.2286767e-07
1.2286733e-07
1.22867e-07
1.2286666e-07
1.2286633e-07
1.22866e-07
1.2286566e-07
1.2286532e-07
1.2286497e-07
1.2286462e-07
1.2286425e-07
1.2286388e-07
1.2286349e-07
1.228631e-07
1.228627e-07
1.2286229e-07
1.2286187e-07
1.2286145e-07
1.2286103e-07
1.228606e-07
1.2286018e-07
1.2285976e-07
1.2285935e-07
1.2285896e-07
1.2285858e-07
1.2285822e-07
1.2285789e-07
1.2285759e-07
1.2285732e-07
1.228571e-07
1.2285693e-07
1.228568e-07
1.2285674e-07
1.2285674e-07
1.2285681e-07
1.2285695e-07
1.2285716e-07
1.2285746e-07
1.2285783e-07
1.2285827e-07
1.228588e-07
1.2285939e-07
1.2286004e-07
1.2286075e-07
1.228615e-07
1.2286227e-07
1.2286307e-07
1.2286387e-07
1.2286465e-07
1.2286542e-07
1.2286614e-07
1.2286683e-07
1.2286746e-07
1.2286805e-07
1.2286858e-07
1.2286907e-07
1.2286952e-07
1.2286994e-07
1.2287035e-07
1.2287075e-07
1.2287115e-07
1.2287154e-07
1.2287195e-07
1.2287234e-07
1.2287274e-07
1.2287312e-07
1.2287348e-07
1.2287382e-07
1.2287413e-07
1.2287441e-07
1.2287465e-07
1.2287486e-07
1.2287504e-07
1.2287516e-07
1.2287525e-07
1.2287529e-07
1.2287529e-07
1.2287526e-07
1.2287522e-07
1.2287519e-07
1.2287518e-07
1.2287518e-07
1.228752e-07
1.2287519e-07
1.2287513e-07
1.2287499e-07
1.2287479e-07
1.2287456e-07
1.2287438e-07
1.2287432e-07
1.2287442e-07
1.2287465e-07
1.2287495e-07
1.2287521e-07
1.2287539e-07
1.2287546e-07
1.2287547e-07
1.2287543e-07
1.2287539e-07
1.2287535e-07
1.2287531e-07
1.2287529e-07
1.2287527e-07
1.2287526e-07
1.2287525e-07
1.2287526e-07
1.2287527e-07
1.228753e-07
1.2287533e-07
1.2287536e-07
1.2287535e-07
1.2287533e-07
1.2287531e-07
1.2287531e-07
1.228753e-07
1.2287524e-07
1.228752e-07
1.2287534e-07
1.2287576e-07
1.2287642e-07
1.2287706e-07
1.2287745e-07
1.228776e-07
1.2287758e-07
1.2287744e-07
1.2287723e-07
1.2287691e-07
1.2287647e-07
1.22876e-07
1.2287564e-07
1.2287548e-07
1.2287545e-07
1.2287549e-07
1.2287552e-07
1.2287552e-07
1.2287551e-07
1.2287554e-07
1.2287563e-07
1.2287576e-07
1.2287586e-07
1.2287586e-07
1.2287576e-07
1.2287562e-07
1.2287552e-07
1.2287544e-07
1.228754e-07
1.2287538e-07
1.2287538e-07
1.2287538e-07
1.2287538e-07
1.2287539e-07
1.2287543e-07
1.228755e-07
1.2287556e-07
1.2287558e-07
1.2287555e-07
1.2287552e-07
1.2287549e-07
1.2287548e-07
1.2287548e-07
1.2287548e-07
1.2287548e-07
1.2287548e-07
1.2287548e-07
1.2287548e-07
1.2287548e-07
1.2287548e-07
1.2287548e-07
1.2287548e-07
1.2287548e-07
1.2287548e-07
1.2287548e-07
1.2287548e-07
1.2287548e-07
1.2287548e-07
1.2287548e-07
1.2287548e-07
1.2287548e-07
1.2287548e-07
1.2287548e-07
1.2287548e-07
1.2287548e-07
1.2287548e-07
1.2287548e-07
1.2287548e-07
1.2287548e-07
1.2287548e-07
1.2287548e-07
1.2287548e-07
1.2287548e-07
1.2287548e-07
1.2287548e-07
1.2287548e-07
1.2287548e-07
1.2287548e-07
1.2287548e-07
1.2287548e-07
1.2287548e-07
1.2287548e-07
1.2287548e-07
1.2287548e-07
1.2287548e-07
1.2287548e-07
1.2287548e-07
1.2287548e-07
1.2287548e-07
1.2287548e-07
1.2287548e-07
1.2287548e-07
1.2287548e-07
1.2287548e-07
1.2287548e-07
1.2287548e-07
1.2287548e-07
1.2287548e-07
1.2287548e-07
1.2287548e-07
1.2287548e-07
1.2287548e-07
1.2287548e-07
1.2287548e-07
1.2287548e-07
1.2287548e-07
1.2287548e-07
1.2287548e-07
1.2287548e-07
1.2287548e-07
1.2287548e-07
1.2287548e-07
1.2287548e-07
1.2287548e-07
1.2287548e-07
1.2287548e-07
1.2287548e-07
1.2287548e-07
1.2287548e-07
1.2287548e-07
1.2287548e-07
1.2287548e-07
1.2287548e-07
1.2287548e-07
1.2287548e-07
1.2287548e-07
1.2287548e-07
1.2287548e-07
1.2287548e-07
1.2287548e-07
1.2287548e-07
1.2287548e-07
1.2287548e-07
1.2287548e-07
1.2287548e-07
1.2287548e-07
1.2287548e-07
1.2287548e-07
1.2287548e-07
1.2287548e-07
1.2287548e-07
1.2287548e-07
1.2287548e-07
1.2287548e-07
1.2287548e-07
1.2287548e-07
1.2287548e-07
1.2287548e-07
1.2287548e-07
1.2287548e-07
1.2287548e-07
1.2179624e-07
1.217963e-07
1.2179629e-07
1.2179631e-07
1.2179638e-07
1.2179648e-07
1.2179663e-07
1.2179682e-07
1.2179705e-07
1.2179732e-07
1.2179764e-07
1.21798e-07
1.2179841e-07
1.2179886e-07
1.2179935e-07
1.2179989e-07
1.2180048e-07
1.2180111e-07
1.2180179e-07
1.2180252e-07
1.218033e-07
1.2180413e-07
1.2180501e-07
1.2180594e-07
1.2180693e-07
1.2180797e-07
1.2180906e-07
1.218102e-07
1.2181141e-07
1.2181267e-07
1.2181398e-07
1.2181536e-07
1.218168e-07
1.2181829e-07
1.2181985e-07
1.2182146e-07
1.2182314e-07
1.2182489e-07
1.2182669e-07
1.2182856e-07
1.2183049e-07
1.2183249e-07
1.2183455e-07
1.2183668e-07
1.2183887e-07
1.2184112e-07
1.2184345e-07
1.2184583e-07
1.2184828e-07
1.2185079e-07
1.2185336e-07
1.21856e-07
1.2185869e-07
1.2186145e-07
1.2186426e-07
1.2186713e-07
1.2187005e-07
1.2187302e-07
1.2187604e-07
1.2187911e-07
1.2188222e-07
1.2188537e-07
1.2188855e-07
1.2189177e-07
1.2189502e-07
1.2189829e-07
1.2190158e-07
1.2190489e-07
1.2190821e-07
1.2191153e-07
1.2191485e-07
1.2191817e-07
1.2192147e-07
1.2192475e-07
1.2192801e-07
1.2193123e-07
1.2193441e-07
1.2193755e-07
1.2194064e-07
1.2194367e-07
1.2194663e-07
1.2194952e-07
1.2195233e-07
1.2195505e-07
1.2195769e-07
1.2196023e-07
1.2196266e-07
1.2196499e-07
1.219672e-07
1.2196931e-07
1.2197129e-07
1.2197315e-07
1.219749e-07
1.2197651e-07
1.2197801e-07
1.2197939e-07
1.2198064e-07
1.2198178e-07
1.219828e-07
1.2198371e-07
1.2198452e-07
1.2198523e-07
1.2198584e-07
1.2198637e-07
1.2198683e-07
1.2198721e-07
1.2198753e-07
1.219878e-07
1.2198802e-07
1.2198821e-07
1.2198837e-07
1.2198852e-07
1.2198865e-07
1.2198877e-07
1.219889e-07
1.2198904e-07
1.2198919e-07
1.2198935e-07
1.2198954e-07
1.2198974e-07
1.2198998e-07
1.2199024e-07
1.2199052e-07
1.2199083e-07
1.2199116e-07
1.2199152e-07
1.219919e-07
1.2199229e-07
1.2199271e-07
1.2199314e-07
1.2199358e-07
1.2199403e-07
1.2199449e-07
1.2199495e-07
1.2199542e-07
1.2199589e-07
1.2199635e-07
1.2199681e-07
1.2199725e-07
1.2199768e-07
1.219981e-07
1.2199848e-07
1.2199884e-07
1.2199917e-07
1.2199946e-07
1.219997e-07
1.2199989e-07
1.2200002e-07
1.2200008e-07
1.2200008e-07
1.22e-07
1.2199984e-07
1.219996e-07
1.2199928e-07
1.2199887e-07
1.2199837e-07
1.219978e-07
1.2199715e-07
1.2199644e-07
1.2199567e-07
1.2199485e-07
1.2199401e-07
1.2199315e-07
1.2199229e-07
1.2199145e-07
1.2199064e-07
1.2198987e-07
1.2198915e-07
1.2198848e-07
1.2198787e-07
1.2198732e-07
1.2198682e-07
1.2198635e-07
1.2198591e-07
1.2198548e-07
1.2198507e-07
1.2198465e-07
1.2198423e-07
1.219838e-07
1.2198337e-07
1.2198295e-07
1.2198255e-07
1.2198216e-07
1.219818e-07
1.2198147e-07
1.2198117e-07
1.2198091e-07
1.2198068e-07
1.219805e-07
1.2198036e-07
1.2198027e-07
1.2198023e-07
1.2198023e-07
1.2198026e-07
1.2198031e-07
1.2198034e-07
1.2198036e-07
1.2198035e-07
1.2198034e-07
1.2198034e-07
1.2198041e-07
1.2198055e-07
1.2198077e-07
1.2198102e-07
1.2198122e-07
1.2198128e-07
1.2198117e-07
1.2198091e-07
1.2198059e-07
1.219803e-07
1.2198012e-07
1.2198004e-07
1.2198004e-07
1.2198008e-07
1.2198013e-07
1.2198017e-07
1.2198021e-07
1.2198024e-07
1.2198025e-07
1.2198027e-07
1.2198027e-07
1.2198026e-07
1.2198025e-07
1.2198022e-07
1.2198018e-07
1.2198016e-07
1.2198016e-07
1.2198019e-07
1.2198021e-07
1.2198021e-07
1.2198022e-07
1.2198028e-07
1.2198032e-07
1.2198018e-07
1.2197973e-07
1.2197902e-07
1.2197835e-07
1.2197792e-07
1.2197777e-07
1.2197779e-07
1.2197794e-07
1.2197817e-07
1.2197851e-07
1.2197897e-07
1.2197947e-07
1.2197985e-07
1.2198003e-07
1.2198005e-07
1.2198002e-07
1.2197999e-07
1.2197999e-07
1.2197999e-07
1.2197996e-07
1.2197987e-07
1.2197972e-07
1.2197962e-07
1.2197962e-07
1.2197973e-07
1.2197987e-07
1.2197999e-07
1.2198007e-07
1.2198012e-07
1.2198013e-07
1.2198013e-07
1.2198014e-07
1.2198014e-07
1.2198012e-07
1.2198008e-07
1.2198001e-07
1.2197995e-07
1.2197992e-07
1.2197995e-07
1.2197999e-07
1.2198001e-07
1.2198002e-07
1.2198003e-07
1.2198003e-07
1.2198003e-07
1.2198003e-07
1.2198003e-07
1.2198003e-07
1.2198003e-07
1.2198003e-07
1.2198003e-07
1.2198003e-07
1.2198003e-07
1.2198003e-07
1.2198003e-07
1.2198003e-07
1.2198003e-07
1.2198003e-07
1.2198003e-07
1.2198003e-07
1.2198003e-07
1.2198003e-07
1.2198003e-07
1.2198003e-07
1.2198003e-07
1.2198003e-07
1.2198003e-07
1.2198003e-07
1.2198003e-07
1.2198003e-07
1.2198003e-07
1.2198003e-07
1.2198003e-07
1.2198003e-07
1.2198003e-07
1.2198003e-07
1.2198003e-07
1.2198003e-07
1.2198003e-07
1.2198003e-07
1.2198003e-07
1.2198003e-07
1.2198003e-07
1.2198003e-07
1.2198003e-07
1.2198003e-07
1.2198003e-07
1.2198003e-07
1.2198003e-07
1.2198003e-07
1.2198003e-07
1.2198003e-07
1.2198003e-07
1.2198003e-07
1.2198003e-07
1.2198003e-07
1.2198003e-07
1.2198003e-07
1.2198003e-07
1.2198003e-07
1.2198003e-07
1.2198003e-07
1.2198003e-07
1.2198003e-07
1.2198003e-07
1.2198003e-07
1.2198003e-07
1.2198003e-07
1.2198003e-07
1.2198003e-07
1.2198003e-07
1.2198003e-07
1.2198003e-07
1.2198003e-07
1.2198003e-07
1.2198003e-07
1.2198003e-07
1.2198003e-07
1.2198003e-07
1.2198003e-07
1.2198003e-07
1.2198003e-07
1.2198003e-07
1.2198003e-07
1.2198003e-07
1.2198003e-07
1.2198003e-07
1.2198003e-07
1.2198003e-07
1.2198003e-07
1.2198003e-07
1.2198003e-07
1.2198003e-07
1.2198003e-07
1.2198003e-07
1.2198003e-07
1.2198003e-07
1.2198003e-07
1.2198003e-07
1.2198003e-07
1.2198003e-07
1.2198003e-07
1.2198003e-07
1.2198003e-07
1.2198003e-07
1.2198003e-07
1.2198003e-07
1.2198003e-07
1.2198003e-07
1.2198003e-07
1.2198003e-07
1.2099047e-07
1.2099056e-07
1.2099046e-07
1.2099037e-07
1.209903e-07
1.2099024e-07
1.209902e-07
1.2099019e-07
1.2099019e-07
1.2099022e-07
1.2099026e-07
1.2099033e-07
1.2099042e-07
1.2099053e-07
1.2099067e-07
1.2099083e-07
1.2099101e-07
1.2099122e-07
1.2099145e-07
1.2099171e-07
1.20992e-07
1.2099231e-07
1.2099265e-07
1.2099302e-07
1.2099342e-07
1.2099386e-07
1.2099432e-07
1.2099482e-07
1.2099536e-07
1.2099593e-07
1.2099653e-07
1.2099718e-07
1.2099786e-07
1.2099859e-07
1.2099936e-07
1.2100017e-07
1.2100103e-07
1.2100194e-07
1.2100289e-07
1.210039e-07
1.2100496e-07
1.2100607e-07
1.2100724e-07
1.2100846e-07
1.2100975e-07
1.2101109e-07
1.210125e-07
1.2101398e-07
1.2101552e-07
1.2101713e-07
1.210188e-07
1.2102055e-07
1.2102237e-07
1.2102427e-07
1.2102624e-07
1.2102829e-07
1.2103042e-07
1.2103262e-07
1.2103491e-07
1.2103728e-07
1.2103973e-07
1.2104225e-07
1.2104486e-07
1.2104755e-07
1.2105033e-07
1.2105318e-07
1.210561e-07
1.2105911e-07
1.2106218e-07
1.2106533e-07
1.2106855e-07
1.2107183e-07
1.2107517e-07
1.2107857e-07
1.2108202e-07
1.2108552e-07
1.2108906e-07
1.2109263e-07
1.2109623e-07
1.2109984e-07
1.2110347e-07
1.211071e-07
1.2111072e-07
1.2111433e-07
1.2111791e-07
1.2112145e-07
1.2112495e-07
1.211284e-07
1.2113177e-07
1.2113507e-07
1.2113828e-07
1.211414e-07
1.211444e-07
1.2114729e-07
1.2115006e-07
1.2115269e-07
1.2115517e-07
1.2115751e-07
1.211597e-07
1.2116173e-07
1.2116359e-07
1.211653e-07
1.2116683e-07
1.211682e-07
1.2116941e-07
1.2117046e-07
1.2117135e-07
1.2117208e-07
1.2117268e-07
1.2117313e-07
1.2117346e-07
1.2117366e-07
1.2117375e-07
1.2117375e-07
1.2117365e-07
1.2117346e-07
1.2117321e-07
1.2117289e-07
1.2117253e-07
1.2117211e-07
1.2117166e-07
1.2117119e-07
1.2117068e-07
1.2117015e-07
1.2116961e-07
1.2116905e-07
1.2116849e-07
1.2116792e-07
1.2116734e-07
1.2116676e-07
1.2116618e-07
1.2116559e-07
1.21165e-07
1.2116441e-07
1.2116382e-07
1.2116324e-07
1.2116266e-07
1.2116209e-07
1.2116153e-07
1.2116099e-07
1.2116047e-07
1.2115998e-07
1.2115953e-07
1.2115912e-07
1.2115876e-07
1.2115846e-07
1.2115823e-07
1.2115807e-07
1.2115799e-07
1.21158e-07
1.2115811e-07
1.2115832e-07
1.2115863e-07
1.2115906e-07
1.2115958e-07
1.2116022e-07
1.2116095e-07
1.2116178e-07
1.2116269e-07
1.2116367e-07
1.211647e-07
1.2116576e-07
1.2116684e-07
1.211679e-07
1.2116895e-07
1.2116995e-07
1.2117089e-07
1.2117176e-07
1.2117256e-07
1.2117328e-07
1.2117394e-07
1.2117453e-07
1.2117508e-07
1.2117559e-07
1.2117609e-07
1.2117659e-07
1.2117709e-07
1.211776e-07
1.2117812e-07
1.2117865e-07
1.2117916e-07
1.2117967e-07
1.2118014e-07
1.2118058e-07
1.2118099e-07
1.2118136e-07
1.2118168e-07
1.2118196e-07
1.2118219e-07
1.2118236e-07
1.2118247e-07
1.2118252e-07
1.2118251e-07
1.2118247e-07
1.2118241e-07
1.2118236e-07
1.2118233e-07
1.2118234e-07
1.2118237e-07
1.2118236e-07
1.2118229e-07
1.2118211e-07
1.2118183e-07
1.2118151e-07
1.2118126e-07
1.2118119e-07
1.2118133e-07
1.2118166e-07
1.2118207e-07
1.2118243e-07
1.2118266e-07
1.2118275e-07
1.2118274e-07
1.2118269e-07
1.2118263e-07
1.2118257e-07
1.2118253e-07
1.2118249e-07
1.2118247e-07
1.2118246e-07
1.2118246e-07
1.2118246e-07
1.2118249e-07
1.2118252e-07
1.2118256e-07
1.211826e-07
1.2118259e-07
1.2118255e-07
1.2118253e-07
1.2118253e-07
1.2118252e-07
1.2118245e-07
1.2118238e-07
1.2118255e-07
1.2118311e-07
1.2118398e-07
1.2118481e-07
1.2118532e-07
1.2118551e-07
1.2118548e-07
1.211853e-07
1.2118502e-07
1.2118461e-07
1.2118404e-07
1.2118343e-07
1.2118296e-07
1.2118275e-07
1.2118272e-07
1.2118276e-07
1.211828e-07
1.211828e-07
1.211828e-07
1.2118283e-07
1.2118295e-07
1.2118313e-07
1.2118325e-07
1.2118325e-07
1.2118312e-07
1.2118294e-07
1.211828e-07
1.211827e-07
1.2118265e-07
1.2118262e-07
1.2118262e-07
1.2118262e-07
1.2118262e-07
1.2118263e-07
1.2118269e-07
1.2118278e-07
1.2118285e-07
1.2118288e-07
1.2118285e-07
1.211828e-07
1.2118277e-07
1.2118276e-07
1.2118275e-07
1.2118275e-07
1.2118275e-07
1.2118275e-07
1.2118275e-07
1.2118275e-07
1.2118275e-07
1.2118275e-07
1.2118275e-07
1.2118275e-07
1.2118275e-07
1.2118275e-07
1.2118275e-07
1.2118275e-07
1.2118275e-07
1.2118275e-07
1.2118275e-07
1.2118275e-07
1.2118275e-07
1.2118275e-07
1.2118275e-07
1.2118275e-07
1.2118275e-07
1.2118275e-07
1.2118275e-07
1.2118275e-07
1.2118275e-07
1.2118275e-07
1.2118275e-07
1.2118275e-07
1.2118275e-07
1.2118275e-07
1.2118275e-07
1.2118275e-07
1.2118275e-07
1.2118275e-07
1.2118275e-07
1.2118275e-07
1.2118275e-07
1.2118275e-07
1.2118275e-07
1.2118275e-07
1.2118276e-07
1.2118276e-07
1.2118276e-07
1.2118276e-07
1.2118276e-07
1.2118276e-07
1.2118276e-07
1.2118276e-07
1.2118276e-07
1.2118276e-07
1.2118276e-07
1.2118276e-07
1.2118276e-07
1.2118276e-07
1.2118276e-07
1.2118276e-07
1.2118276e-07
1.2118276e-07
1.2118276e-07
1.2118276e-07
1.2118276e-07
1.2118276e-07
1.2118276e-07
1.2118276e-07
1.2118276e-07
1.2118276e-07
1.2118276e-07
1.2118276e-07
1.2118276e-07
1.2118276e-07
1.2118276e-07
1.2118276e-07
1.2118276e-07
1.2118276e-07
1.2118276e-07
1.2118276e-07
1.2118276e-07
1.2118276e-07
1.2118276e-07
1.2118276e-07
1.2118276e-07
1.2118276e-07
1.2118276e-07
1.2118276e-07
1.2118276e-07
1.2118276e-07
1.2118276e-07
1.2118276e-07
1.2118276e-07
1.2118276e-07
1.2118276e-07
1.2118276e-07
1.2118276e-07
1.2118276e-07
1.2118276e-07
1.2118276e-07
1.2118276e-07
1.2118276e-07
1.2118276e-07
1.2118276e-07
1.2118276e-07
1.2118276e-07
1.2118276e-07
1.2118276e-07
1.2118276e-07
1.2118276e-07
1.2118276e-07
1.2038571e-07
1.2038582e-07
1.2038562e-07
1.2038538e-07
1.2038512e-07
1.2038484e-07
1.2038455e-07
1.2038424e-07
1.2038391e-07
1.2038356e-07
1.203832e-07
1.2038282e-07
1.2038243e-07
1.2038202e-07
1.2038159e-07
1.2038114e-07
1.2038068e-07
1.203802e-07
1.2037971e-07
1.203792e-07
1.2037867e-07
1.2037813e-07
1.2037758e-07
1.20377e-07
1.2037642e-07
1.2037582e-07
1.2037521e-07
1.2037458e-07
1.2037394e-07
1.2037329e-07
1.2037263e-07
1.2037196e-07
1.2037128e-07
1.203706e-07
1.2036991e-07
1.2036921e-07
1.2036852e-07
1.2036782e-07
1.2036712e-07
1.2036643e-07
1.2036574e-07
1.2036505e-07
1.2036438e-07
1.2036372e-07
1.2036307e-07
1.2036244e-07
1.2036183e-07
1.2036125e-07
1.2036069e-07
1.2036017e-07
1.2035968e-07
1.2035922e-07
1.2035881e-07
1.2035845e-07
1.2035813e-07
1.2035787e-07
1.2035767e-07
1.2035754e-07
1.2035747e-07
1.2035748e-07
1.2035756e-07
1.2035773e-07
1.2035799e-07
1.2035834e-07
1.2035878e-07
1.2035933e-07
1.2035998e-07
1.2036075e-07
1.2036162e-07
1.2036262e-07
1.2036373e-07
1.2036497e-07
1.2036634e-07
1.2036783e-07
1.2036945e-07
1.2037121e-07
1.2037309e-07
1.2037511e-07
1.2037725e-07
1.2037952e-07
1.2038192e-07
1.2038444e-07
1.2038707e-07
1.2038982e-07
1.2039267e-07
1.2039562e-07
1.2039866e-07
1.2040177e-07
1.2040496e-07
1.2040821e-07
1.204115e-07
1.2041484e-07
1.2041819e-07
1.2042156e-07
1.2042492e-07
1.2042826e-07
1.2043157e-07
1.2043483e-07
1.2043804e-07
1.2044117e-07
1.2044422e-07
1.2044717e-07
1.2045001e-07
1.2045274e-07
1.2045534e-07
1.204578e-07
1.2046013e-07
1.2046231e-07
1.2046435e-07
1.2046624e-07
1.2046799e-07
1.2046959e-07
1.2047106e-07
1.2047239e-07
1.2047361e-07
1.2047471e-07
1.204757e-07
1.204766e-07
1.2047742e-07
1.2047817e-07
1.2047885e-07
1.2047949e-07
1.2048008e-07
1.2048065e-07
1.204812e-07
1.2048174e-07
1.2048228e-07
1.2048282e-07
1.2048336e-07
1.2048392e-07
1.2048449e-07
1.2048507e-07
1.2048566e-07
1.2048627e-07
1.2048688e-07
1.204875e-07
1.2048811e-07
1.2048873e-07
1.2048933e-07
1.2048991e-07
1.2049047e-07
1.20491e-07
1.2049149e-07
1.2049193e-07
1.2049232e-07
1.2049264e-07
1.2049289e-07
1.2049306e-07
1.2049314e-07
1.2049312e-07
1.2049299e-07
1.2049276e-07
1.2049241e-07
1.2049194e-07
1.2049135e-07
1.2049065e-07
1.2048984e-07
1.2048894e-07
1.2048795e-07
1.2048688e-07
1.2048577e-07
1.2048462e-07
1.2048347e-07
1.2048233e-07
1.2048122e-07
1.2048017e-07
1.2047919e-07
1.2047829e-07
1.2047747e-07
1.2047674e-07
1.2047608e-07
1.2047548e-07
1.2047493e-07
1.2047442e-07
1.2047391e-07
1.204734e-07
1.2047288e-07
1.2047234e-07
1.2047179e-07
1.2047124e-07
1.2047069e-07
1.2047017e-07
1.2046966e-07
1.204692e-07
1.2046877e-07
1.2046839e-07
1.2046805e-07
1.2046775e-07
1.2046751e-07
1.2046733e-07
1.2046721e-07
1.2046716e-07
1.2046717e-07
1.2046723e-07
1.204673e-07
1.2046735e-07
1.2046738e-07
1.2046736e-07
1.2046733e-07
1.2046733e-07
1.2046741e-07
1.204676e-07
1.204679e-07
1.2046824e-07
1.2046851e-07
1.2046859e-07
1.2046843e-07
1.2046807e-07
1.2046763e-07
1.2046724e-07
1.20467e-07
1.2046692e-07
1.2046693e-07
1.2046698e-07
1.2046705e-07
1.2046711e-07
1.2046716e-07
1.2046719e-07
1.2046722e-07
1.2046723e-07
1.2046723e-07
1.2046722e-07
1.204672e-07
1.2046716e-07
1.2046712e-07
1.2046708e-07
1.2046708e-07
1.2046713e-07
1.2046716e-07
1.2046715e-07
1.2046716e-07
1.2046724e-07
1.2046731e-07
1.2046713e-07
1.2046655e-07
1.2046563e-07
1.2046476e-07
1.2046422e-07
1.2046402e-07
1.2046406e-07
1.2046425e-07
1.2046454e-07
1.2046497e-07
1.2046557e-07
1.2046621e-07
1.204667e-07
1.2046692e-07
1.2046696e-07
1.2046691e-07
1.2046687e-07
1.2046687e-07
1.2046687e-07
1.2046684e-07
1.2046671e-07
1.2046653e-07
1.204664e-07
1.2046639e-07
1.2046654e-07
1.2046672e-07
1.2046687e-07
1.2046697e-07
1.2046703e-07
1.2046705e-07
1.2046706e-07
1.2046706e-07
1.2046706e-07
1.2046704e-07
1.2046698e-07
1.2046689e-07
1.2046681e-07
1.2046678e-07
1.2046682e-07
1.2046687e-07
1.204669e-07
1.2046691e-07
1.2046692e-07
1.2046692e-07
1.2046692e-07
1.2046692e-07
1.2046692e-07
1.2046692e-07
1.2046692e-07
1.2046692e-07
1.2046692e-07
1.2046692e-07
1.2046692e-07
1.2046692e-07
1.2046692e-07
1.2046692e-07
1.2046692e-07
1.2046692e-07
1.2046692e-07
1.2046692e-07
1.2046692e-07
1.2046692e-07
1.2046692e-07
1.2046692e-07
1.2046692e-07
1.2046692e-07
1.2046692e-07
1.2046692e-07
1.2046692e-07
1.2046692e-07
1.2046692e-07
1.2046692e-07
1.2046692e-07
1.2046692e-07
1.2046692e-07
1.2046693e-07
1.2046693e-07
1.2046693e-07
1.2046693e-07
1.2046693e-07
1.2046693e-07
1.2046693e-07
1.2046693e-07
1.2046693e-07
1.2046693e-07
1.2046693e-07
1.2046693e-07
1.2046693e-07
1.2046693e-07
1.2046693e-07
1.2046693e-07
1.2046693e-07
1.2046693e-07
1.2046693e-07
1.2046693e-07
1.2046693e-07
1.2046693e-07
1.2046693e-07
1.2046693e-07
1.2046693e-07
1.2046693e-07
1.2046693e-07
1.2046693e-07
1.2046694e-07
1.2046694e-07
1.2046694e-07
1.2046694e-07
1.2046694e-07
1.2046694e-07
1.2046694e-07
1.2046694e-07
1.2046694e-07
1.2046694e-07
1.2046694e-07
1.2046694e-07
1.2046694e-07
1.2046694e-07
1.2046694e-07
1.2046694e-07
1.2046694e-07
1.2046694e-07
1.2046694e-07
1.2046694e-07
1.2046694e-07
1.2046694e-07
1.2046694e-07
1.2046694e-07
1.2046694e-07
1.2046694e-07
1.2046694e-07
1.2046694e-07
1.2046694e-07
1.2046694e-07
1.2046694e-07
1.2046694e-07
1.2046694e-07
1.2046694e-07
1.2046694e-07
1.2046694e-07
1.2046694e-07
1.2046694e-07
1.2046694e-07
1.2046694e-07
1.2046694e-07
1.2046694e-07
1.2046694e-07
1.2046694e-07
1.2046694e-07
1.2046694e-07
1.2046694e-07
1.2046694e-07
1.1992895e-07
1.1992908e-07
1.1992877e-07
1.1992839e-07
1.1992794e-07
1.1992743e-07
1.1992687e-07
1.1992624e-07
1.1992556e-07
1.1992482e-07
1.1992402e-07
1.1992316e-07
1.1992224e-07
1.1992125e-07
1.1992021e-07
1.1991911e-07
1.1991794e-07
1.1991671e-07
1.1991541e-07
1.1991405e-07
1.1991263e-07
1.1991113e-07
1.1990957e-07
1.1990795e-07
1.1990625e-07
1.1990448e-07
1.1990265e-07
1.1990074e-07
1.1989877e-07
1.1989672e-07
1.1989461e-07
1.1989242e-07
1.1989016e-07
1.1988783e-07
1.1988543e-07
1.1988297e-07
1.1988043e-07
1.1987782e-07
1.1987515e-07
1.1987241e-07
1.1986961e-07
1.1986674e-07
1.1986381e-07
1.1986082e-07
1.1985778e-07
1.1985468e-07
1.1985153e-07
1.1984834e-07
1.1984509e-07
1.1984181e-07
1.1983849e-07
1.1983514e-07
1.1983177e-07
1.1982837e-07
1.1982495e-07
1.1982153e-07
1.198181e-07
1.1981467e-07
1.1981126e-07
1.1980786e-07
1.1980449e-07
1.1980115e-07
1.1979785e-07
1.197946e-07
1.197914e-07
1.1978828e-07
1.1978523e-07
1.1978227e-07
1.1977941e-07
1.1977665e-07
1.1977401e-07
1.1977149e-07
1.1976911e-07
1.1976687e-07
1.1976478e-07
1.1976285e-07
1.1976109e-07
1.1975951e-07
1.1975812e-07
1.1975691e-07
1.197559e-07
1.1975509e-07
1.1975449e-07
1.1975409e-07
1.197539e-07
1.1975393e-07
1.1975416e-07
1.1975459e-07
1.1975523e-07
1.1975606e-07
1.1975709e-07
1.1975829e-07
1.1975967e-07
1.197612e-07
1.1976289e-07
1.197647e-07
1.1976663e-07
1.1976867e-07
1.1977078e-07
1.1977296e-07
1.1977518e-07
1.1977743e-07
1.1977968e-07
1.1978192e-07
1.1978413e-07
1.1978628e-07
1.1978837e-07
1.1979036e-07
1.1979225e-07
1.1979403e-07
1.1979567e-07
1.1979718e-07
1.1979853e-07
1.1979973e-07
1.1980078e-07
1.1980166e-07
1.1980238e-07
1.1980294e-07
1.1980335e-07
1.1980361e-07
1.1980373e-07
1.1980373e-07
1.1980362e-07
1.1980339e-07
1.1980306e-07
1.1980264e-07
1.1980215e-07
1.1980158e-07
1.1980097e-07
1.1980031e-07
1.1979961e-07
1.1979888e-07
1.1979813e-07
1.1979737e-07
1.197966e-07
1.1979583e-07
1.1979507e-07
1.1979432e-07
1.1979358e-07
1.1979287e-07
1.1979219e-07
1.1979156e-07
1.1979097e-07
1.1979044e-07
1.1978998e-07
1.1978959e-07
1.197893e-07
1.197891e-07
1.1978901e-07
1.1978904e-07
1.197892e-07
1.197895e-07
1.1978993e-07
1.197905e-07
1.1979122e-07
1.1979207e-07
1.1979305e-07
1.1979414e-07
1.1979534e-07
1.1979662e-07
1.1979795e-07
1.1979932e-07
1.198007e-07
1.1980205e-07
1.1980335e-07
1.1980458e-07
1.1980573e-07
1.1980677e-07
1.1980771e-07
1.1980855e-07
1.1980929e-07
1.1980996e-07
1.1981058e-07
1.1981116e-07
1.1981174e-07
1.1981232e-07
1.1981292e-07