/*--------------------------------*- C++ -*----------------------------------*\
| =========                 |                                                 |
| \\      /  F ield         | OpenFOAM: The Open Source CFD Toolbox           |
|  \\    /   O peration     | Version:  2112                                  |
|   \\  /    A nd           | Website:  www.openfoam.com                      |
|    \\/     M anipulation  |                                                 |
\*---------------------------------------------------------------------------*/
FoamFile
{
    version     2.0;
    format      ascii;
    arch        "LSB;label=32;scalar=64";
    class       volScalarField;
    location    "5000";
    object      omega;
}
// * * * * * * * * * * * * * * * * * * * * * * * * * * * * * * * * * * * * * //

dimensions      [0 0 -1 0 0 0 0];

internalField   nonuniform List<scalar> 
208896
(
8193.12
8193.1218
8193.1293
8193.1425
8193.1613
8193.1859
8193.2163
8193.2524
8193.2943
8193.342
8193.3957
8193.4553
8193.5208
8193.5924
8193.6701
8193.754
8193.8441
8193.9405
8194.0432
8194.1524
8194.268
8194.3902
8194.519
8194.6545
8194.7967
8194.9457
8195.1016
8195.2643
8195.434
8195.6107
8195.7944
8195.9851
8196.1828
8196.3876
8196.5994
8196.8183
8197.0441
8197.2768
8197.5164
8197.7629
8198.016
8198.2757
8198.5419
8198.8144
8199.093
8199.3776
8199.6679
8199.9636
8200.2647
8200.5706
8200.8812
8201.196
8201.5148
8201.8371
8202.1624
8202.4904
8202.8206
8203.1524
8203.4854
8203.8189
8204.1524
8204.4853
8204.817
8205.1467
8205.4739
8205.7978
8206.1178
8206.4331
8206.743
8207.0468
8207.3439
8207.6334
8207.9147
8208.187
8208.4498
8208.7024
8208.9442
8209.1746
8209.3931
8209.5992
8209.7925
8209.9727
8210.1394
8210.2924
8210.4317
8210.557
8210.6686
8210.7664
8210.8507
8210.9217
8210.9799
8211.0257
8211.0597
8211.0825
8211.0947
8211.0972
8211.0909
8211.0765
8211.055
8211.0273
8210.9945
8210.9574
8210.917
8210.8743
8210.8301
8210.7852
8210.7405
8210.6967
8210.6542
8210.6138
8210.5758
8210.5405
8210.5083
8210.4792
8210.4533
8210.4307
8210.4111
8210.3945
8210.3806
8210.3692
8210.3599
8210.3526
8210.3468
8210.3423
8210.3388
8210.3361
8210.3338
8210.3319
8210.3301
8210.3284
8210.3266
8210.3247
8210.3227
8210.3205
8210.3182
8210.3158
8210.3133
8210.3107
8210.3082
8210.3057
8210.3033
8210.3011
8210.299
8210.2971
8210.2954
8210.294
8210.2929
8210.2922
8210.2918
8210.2919
8210.2925
8210.2935
8210.2951
8210.2974
8210.3002
8210.3038
8210.308
8210.313
8210.3188
8210.3254
8210.3327
8210.3407
8210.3495
8210.3589
8210.3688
8210.3792
8210.39
8210.401
8210.4121
8210.423
8210.4337
8210.4439
8210.4534
8210.4622
8210.47
8210.4766
8210.482
8210.4861
8210.4889
8210.4902
8210.4902
8210.489
8210.4867
8210.4835
8210.4798
8210.4756
8210.4713
8210.4672
8210.4633
8210.4598
8210.457
8210.4548
8210.4534
8210.4528
8210.4532
8210.4546
8210.4568
8210.4597
8210.4627
8210.4654
8210.467
8210.4669
8210.4651
8210.4616
8210.457
8210.4523
8210.4482
8210.4453
8210.4436
8210.4428
8210.4427
8210.443
8210.4434
8210.4439
8210.4444
8210.4447
8210.4448
8210.4446
8210.4442
8210.4437
8210.4431
8210.4425
8210.4421
8210.4419
8210.4418
8210.4419
8210.442
8210.4422
8210.4424
8210.4426
8210.4426
8210.4422
8210.4417
8210.4416
8210.4423
8210.4441
8210.4464
8210.4482
8210.4492
8210.4495
8210.4492
8210.4484
8210.4468
8210.4448
8210.4433
8210.4425
8210.4424
8210.4427
8210.4429
8210.4429
8210.4428
8210.4426
8210.4426
8210.443
8210.4434
8210.4437
8210.4436
8210.4432
8210.4428
8210.4427
8210.4427
8210.4427
8210.4427
8210.4427
8210.4427
8210.4426
8210.4425
8210.4426
8210.4427
8210.4429
8210.4431
8210.4432
8210.4432
8210.4432
8210.4432
8210.4432
8210.4432
8210.4432
8210.4432
8210.4432
8210.4432
8210.4432
8210.4432
8210.4432
8210.4432
8210.4432
8210.4432
8210.4432
8210.4432
8210.4432
8210.4432
8210.4432
8210.4432
8210.4432
8210.4432
8210.4432
8210.4432
8210.4432
8210.4432
8210.4432
8210.4432
8210.4432
8210.4432
8210.4432
8210.4432
8210.4432
8210.4432
8210.4432
8210.4432
8210.4432
8210.4432
8210.4432
8210.4432
8210.4432
8210.4432
8210.4432
8210.4432
8210.4432
8210.4432
8210.4432
8210.4432
8210.4432
8210.4432
8210.4432
8210.4432
8210.4432
8210.4432
8210.4432
8210.4432
8210.4432
8210.4432
8210.4432
8210.4432
8210.4432
8210.4432
8210.4432
8210.4432
8210.4432
8210.4432
8210.4432
8210.4432
8210.4432
8210.4432
8210.4432
8210.4432
8210.4432
8210.4432
8210.4432
8210.4432
8210.4432
8210.4432
8210.4432
8210.4432
8210.4432
8210.4432
8210.4432
8210.4432
8210.4432
8210.4432
8210.4432
8210.4432
8210.4432
8210.4432
8210.4432
8210.4432
8210.4432
8210.4432
8210.4432
8210.4432
8210.4432
8210.4432
8210.4432
8210.4432
8210.4432
8210.4432
8210.4432
8210.4432
8210.4432
8210.4432
8210.4432
8210.4432
8210.4432
8210.4432
8210.4432
7452.537
7452.5371
7452.5315
7452.5204
7452.5036
7452.4813
7452.4534
7452.42
7452.3811
7452.3367
7452.2869
7452.2319
7452.1715
7452.1059
7452.0353
7451.9596
7451.879
7451.7936
7451.7036
7451.6091
7451.5102
7451.4071
7451.3001
7451.1892
7451.0749
7450.9572
7450.8365
7450.7131
7450.5872
7450.4592
7450.3295
7450.1984
7450.0664
7449.9338
7449.8012
7449.6689
7449.5376
7449.4076
7449.2797
7449.1544
7449.0322
7448.9138
7448.7998
7448.691
7448.5879
7448.4914
7448.4021
7448.3207
7448.248
7448.1848
7448.1318
7448.0898
7448.0595
7448.0416
7448.037
7448.0463
7448.0702
7448.1095
7448.1646
7448.2363
7448.325
7448.4314
7448.5558
7448.6985
7448.86
7449.0405
7449.24
7449.4587
7449.6964
7449.9531
7450.2285
7450.5222
7450.8337
7451.1624
7451.5076
7451.8684
7452.2439
7452.6328
7453.0341
7453.4463
7453.8679
7454.2974
7454.7332
7455.1735
7455.6164
7456.0601
7456.5026
7456.942
7457.3763
7457.8037
7458.222
7458.6296
7459.0246
7459.4053
7459.7701
7460.1178
7460.4469
7460.7564
7461.0455
7461.3134
7461.5598
7461.7844
7461.9872
7462.1685
7462.3287
7462.4685
7462.5887
7462.6905
7462.775
7462.8436
7462.8977
7462.9389
7462.9687
7462.9887
7463.0004
7463.0054
7463.0051
7463.0007
7462.9935
7462.9846
7462.9748
7462.965
7462.9556
7462.9472
7462.9401
7462.9343
7462.9301
7462.9274
7462.9262
7462.9262
7462.9274
7462.9295
7462.9323
7462.9357
7462.9395
7462.9435
7462.9476
7462.9516
7462.9556
7462.9595
7462.9631
7462.9664
7462.9695
7462.9722
7462.9746
7462.9766
7462.9782
7462.9792
7462.9797
7462.9797
7462.9789
7462.9774
7462.9752
7462.972
7462.968
7462.963
7462.957
7462.9499
7462.9417
7462.9325
7462.9222
7462.9108
7462.8984
7462.8851
7462.871
7462.8563
7462.8411
7462.8257
7462.8101
7462.7948
7462.7799
7462.7656
7462.7523
7462.7402
7462.7295
7462.7203
7462.7129
7462.7075
7462.7039
7462.7023
7462.7026
7462.7045
7462.708
7462.7126
7462.7181
7462.724
7462.7301
7462.7359
7462.7413
7462.7461
7462.7501
7462.7531
7462.755
7462.7558
7462.7552
7462.7533
7462.7501
7462.746
7462.7415
7462.7377
7462.7354
7462.7354
7462.738
7462.7431
7462.7495
7462.7562
7462.7619
7462.766
7462.7682
7462.7692
7462.7692
7462.7689
7462.7683
7462.7676
7462.7669
7462.7664
7462.7663
7462.7665
7462.7671
7462.7679
7462.7687
7462.7694
7462.77
7462.7703
7462.7704
7462.7703
7462.7702
7462.7699
7462.7696
7462.7694
7462.7694
7462.7699
7462.7706
7462.7708
7462.7698
7462.7673
7462.7641
7462.7617
7462.7603
7462.7599
7462.7602
7462.7614
7462.7636
7462.7663
7462.7684
7462.7695
7462.7696
7462.7692
7462.769
7462.7689
7462.7691
7462.7693
7462.7693
7462.7688
7462.7682
7462.7678
7462.7679
7462.7685
7462.769
7462.7692
7462.7693
7462.7693
7462.7692
7462.7692
7462.7692
7462.7693
7462.7694
7462.7694
7462.7692
7462.7689
7462.7687
7462.7686
7462.7686
7462.7685
7462.7685
7462.7685
7462.7685
7462.7685
7462.7686
7462.7686
7462.7686
7462.7686
7462.7686
7462.7686
7462.7686
7462.7686
7462.7686
7462.7686
7462.7686
7462.7686
7462.7686
7462.7686
7462.7686
7462.7686
7462.7686
7462.7686
7462.7686
7462.7686
7462.7686
7462.7686
7462.7686
7462.7686
7462.7686
7462.7687
7462.7687
7462.7687
7462.7687
7462.7687
7462.7687
7462.7687
7462.7687
7462.7687
7462.7687
7462.7687
7462.7688
7462.7688
7462.7688
7462.7688
7462.7688
7462.7688
7462.7688
7462.7688
7462.7689
7462.7689
7462.7689
7462.7689
7462.7689
7462.7689
7462.769
7462.769
7462.769
7462.769
7462.769
7462.769
7462.769
7462.7691
7462.7691
7462.7691
7462.7691
7462.7691
7462.7691
7462.7691
7462.7692
7462.7692
7462.7692
7462.7692
7462.7692
7462.7692
7462.7692
7462.7692
7462.7692
7462.7692
7462.7692
7462.7692
7462.7693
7462.7693
7462.7693
7462.7693
7462.7693
7462.7693
7462.7693
7462.7693
7462.7693
7462.7693
7462.7693
7462.7693
7462.7693
7462.7693
7462.7693
7462.7693
7462.7693
7462.7693
7462.7693
7462.7693
7462.7693
7462.7692
7462.7692
7462.7692
7462.7692
7462.7692
7462.7692
7462.7692
7462.7692
7462.7692
6937.4021
6937.3937
6937.3515
6937.2758
6937.1663
6937.023
6936.8458
6936.6347
6936.3895
6936.1101
6935.7963
6935.4481
6935.0651
6934.6473
6934.1945
6933.7064
6933.1831
6932.6241
6932.0295
6931.3991
6930.7327
6930.0302
6929.2915
6928.5166
6927.7055
6926.8581
6925.9745
6925.0548
6924.0991
6923.1076
6922.0805
6921.0182
6919.921
6918.7893
6917.6237
6916.4247
6915.193
6913.9295
6912.6348
6911.3099
6909.956
6908.5741
6907.1654
6905.7313
6904.2732
6902.7928
6901.2916
6899.7715
6898.2343
6896.682
6895.1168
6893.541
6891.9567
6890.3666
6888.773
6887.1787
6885.5864
6883.999
6882.4192
6880.8501
6879.2947
6877.7561
6876.2374
6874.7417
6873.2722
6871.832
6870.4243
6869.0521
6867.7185
6866.4263
6865.1786
6863.9779
6862.8269
6861.7282
6860.6838
6859.6959
6858.7663
6857.8966
6857.0882
6856.342
6855.6587
6855.039
6854.4827
6853.9896
6853.5592
6853.1904
6852.8819
6852.6321
6852.4389
6852.3
6852.2125
6852.1736
6852.1799
6852.2279
6852.3138
6852.4337
6852.5835
6852.7591
6852.9561
6853.1705
6853.398
6853.6346
6853.8764
6854.1197
6854.361
6854.5972
6854.8254
6855.0432
6855.2485
6855.4397
6855.6153
6855.7746
6855.917
6856.0425
6856.1512
6856.2438
6856.3209
6856.3837
6856.4335
6856.4714
6856.4991
6856.5178
6856.5291
6856.5343
6856.5348
6856.5317
6856.5261
6856.5187
6856.5103
6856.5015
6856.4928
6856.4844
6856.4765
6856.4693
6856.4626
6856.4567
6856.4513
6856.4464
6856.442
6856.438
6856.4343
6856.431
6856.4279
6856.4252
6856.4228
6856.4208
6856.4192
6856.4181
6856.4176
6856.4177
6856.4184
6856.4199
6856.4223
6856.4255
6856.4298
6856.435
6856.4413
6856.4488
6856.4573
6856.4671
6856.478
6856.4899
6856.503
6856.5169
6856.5317
6856.5472
6856.5631
6856.5794
6856.5956
6856.6117
6856.6272
6856.642
6856.6559
6856.6684
6856.6795
6856.6889
6856.6965
6856.702
6856.7055
6856.7069
6856.7065
6856.7042
6856.7004
6856.6954
6856.6895
6856.6833
6856.6769
6856.6708
6856.6652
6856.6603
6856.6562
6856.6531
6856.6511
6856.6504
6856.651
6856.653
6856.6563
6856.6607
6856.6654
6856.6695
6856.672
6856.672
6856.6692
6856.6639
6856.657
6856.65
6856.6441
6856.64
6856.6377
6856.6368
6856.6368
6856.6372
6856.6378
6856.6385
6856.6392
6856.6397
6856.6398
6856.6396
6856.639
6856.6381
6856.6373
6856.6365
6856.636
6856.6357
6856.6356
6856.6356
6856.6358
6856.636
6856.6363
6856.6366
6856.6366
6856.6361
6856.6353
6856.6352
6856.6362
6856.6388
6856.6421
6856.6447
6856.646
6856.6465
6856.6461
6856.6449
6856.6426
6856.6398
6856.6377
6856.6365
6856.6365
6856.6368
6856.6371
6856.6371
6856.637
6856.6368
6856.6368
6856.6372
6856.6379
6856.6383
6856.6382
6856.6376
6856.6371
6856.6368
6856.6368
6856.6368
6856.6369
6856.6369
6856.6368
6856.6367
6856.6367
6856.6367
6856.6369
6856.6372
6856.6375
6856.6376
6856.6376
6856.6376
6856.6376
6856.6376
6856.6376
6856.6376
6856.6376
6856.6377
6856.6377
6856.6377
6856.6377
6856.6377
6856.6377
6856.6377
6856.6377
6856.6377
6856.6377
6856.6378
6856.6378
6856.6378
6856.6378
6856.6378
6856.6378
6856.6379
6856.6379
6856.6379
6856.6379
6856.6379
6856.638
6856.638
6856.638
6856.638
6856.6381
6856.6381
6856.6381
6856.6382
6856.6382
6856.6382
6856.6383
6856.6383
6856.6384
6856.6384
6856.6384
6856.6385
6856.6385
6856.6386
6856.6386
6856.6387
6856.6387
6856.6388
6856.6389
6856.6389
6856.639
6856.639
6856.6391
6856.6391
6856.6392
6856.6393
6856.6393
6856.6394
6856.6394
6856.6395
6856.6396
6856.6396
6856.6397
6856.6397
6856.6398
6856.6398
6856.6399
6856.6399
6856.64
6856.64
6856.6401
6856.6401
6856.6401
6856.6402
6856.6402
6856.6402
6856.6403
6856.6403
6856.6403
6856.6403
6856.6403
6856.6404
6856.6404
6856.6404
6856.6404
6856.6404
6856.6404
6856.6404
6856.6404
6856.6404
6856.6404
6856.6404
6856.6404
6856.6404
6856.6404
6856.6404
6856.6403
6856.6403
6856.6403
6856.6403
6856.6403
6856.6403
6856.6403
6856.6403
6856.6403
6856.6403
6856.6403
6856.6403
6856.6403
6856.6403
6583.6292
6583.6096
6583.5255
6583.3771
6583.164
6582.8862
6582.5433
6582.1351
6581.6612
6581.1212
6580.5147
6579.8411
6579.1
6578.2907
6577.4128
6576.4655
6575.4483
6574.3604
6573.2013
6571.9702
6570.6665
6569.2895
6567.8385
6566.313
6564.7122
6563.0358
6561.283
6559.4534
6557.5466
6555.5623
6553.5
6551.3597
6549.1411
6546.8442
6544.4691
6542.016
6539.485
6536.8768
6534.1917
6531.4306
6528.5942
6525.6837
6522.7001
6519.6448
6516.5194
6513.3256
6510.0653
6506.7408
6503.3543
6499.9085
6496.4061
6492.8501
6489.2439
6485.5909
6481.8948
6478.1596
6474.3896
6470.5891
6466.7628
6462.9157
6459.0527
6455.1794
6451.3011
6447.4237
6443.553
6439.6952
6435.8563
6432.0429
6428.2613
6424.518
6420.8198
6417.173
6413.5845
6410.0607
6406.6081
6403.2331
6399.9419
6396.7407
6393.6351
6390.6308
6387.7328
6384.9462
6382.2753
6379.7241
6377.2961
6374.9943
6372.8212
6370.7785
6368.8674
6367.0885
6365.4417
6363.9261
6362.5402
6361.2819
6360.1483
6359.1357
6358.2402
6357.4568
6356.7803
6356.2048
6355.724
6355.3312
6355.0194
6354.7814
6354.6099
6354.4974
6354.4365
6354.42
6354.4408
6354.4922
6354.5677
6354.6614
6354.7679
6354.8822
6355.0001
6355.1177
6355.2321
6355.3408
6355.4418
6355.5339
6355.6161
6355.6883
6355.7505
6355.8032
6355.8469
6355.8824
6355.9107
6355.9328
6355.9498
6355.9627
6355.9724
6355.9797
6355.9853
6355.9899
6355.9938
6355.9975
6356.001
6356.0045
6356.0082
6356.0119
6356.0157
6356.0194
6356.0229
6356.0262
6356.0292
6356.0318
6356.0339
6356.0353
6356.0361
6356.036
6356.0351
6356.0333
6356.0304
6356.0264
6356.0211
6356.0146
6356.0067
6355.9974
6355.9867
6355.9746
6355.961
6355.946
6355.9297
6355.9123
6355.8938
6355.8745
6355.8547
6355.8345
6355.8143
6355.7944
6355.7751
6355.7567
6355.7396
6355.7241
6355.7105
6355.699
6355.6898
6355.6832
6355.679
6355.6775
6355.6783
6355.6813
6355.6863
6355.6927
6355.7
6355.7079
6355.7159
6355.7234
6355.7304
6355.7364
6355.7414
6355.7453
6355.7478
6355.7487
6355.748
6355.7454
6355.7411
6355.7356
6355.7296
6355.7244
6355.7213
6355.7213
6355.7248
6355.7315
6355.7401
6355.7488
6355.7561
6355.7612
6355.7639
6355.765
6355.7649
6355.7645
6355.7637
6355.7628
6355.762
6355.7613
6355.7612
6355.7615
6355.7622
6355.7632
6355.7643
6355.7652
6355.7659
6355.7663
6355.7664
6355.7663
6355.7661
6355.7658
6355.7654
6355.7651
6355.7651
6355.7657
6355.7667
6355.7669
6355.7656
6355.7624
6355.7584
6355.7552
6355.7535
6355.753
6355.7535
6355.7549
6355.7577
6355.7612
6355.7639
6355.7652
6355.7653
6355.7649
6355.7646
6355.7645
6355.7647
6355.765
6355.765
6355.7644
6355.7636
6355.7631
6355.7633
6355.764
6355.7646
6355.7649
6355.765
6355.765
6355.7649
6355.7649
6355.765
6355.7651
6355.7652
6355.7652
6355.7649
6355.7646
6355.7643
6355.7642
6355.7642
6355.7642
6355.7642
6355.7642
6355.7642
6355.7642
6355.7642
6355.7643
6355.7643
6355.7643
6355.7643
6355.7643
6355.7644
6355.7644
6355.7644
6355.7644
6355.7645
6355.7645
6355.7645
6355.7646
6355.7646
6355.7646
6355.7647
6355.7647
6355.7648
6355.7648
6355.7649
6355.7649
6355.765
6355.765
6355.7651
6355.7652
6355.7652
6355.7653
6355.7654
6355.7654
6355.7655
6355.7656
6355.7657
6355.7658
6355.7659
6355.766
6355.7661
6355.7662
6355.7663
6355.7664
6355.7665
6355.7666
6355.7667
6355.7668
6355.767
6355.7671
6355.7672
6355.7674
6355.7675
6355.7676
6355.7678
6355.7679
6355.768
6355.7682
6355.7683
6355.7684
6355.7686
6355.7687
6355.7688
6355.769
6355.7691
6355.7692
6355.7693
6355.7694
6355.7695
6355.7696
6355.7697
6355.7698
6355.7699
6355.77
6355.77
6355.7701
6355.7702
6355.7702
6355.7703
6355.7703
6355.7703
6355.7704
6355.7704
6355.7704
6355.7704
6355.7704
6355.7704
6355.7704
6355.7704
6355.7704
6355.7704
6355.7704
6355.7704
6355.7704
6355.7704
6355.7704
6355.7704
6355.7703
6355.7703
6355.7703
6355.7703
6355.7703
6355.7703
6355.7703
6355.7702
6355.7702
6355.7702
6355.7702
6355.7702
6355.7702
6333.6562
6333.6256
6333.5036
6333.2899
6332.9843
6332.5864
6332.0959
6331.5123
6330.8349
6330.063
6329.1959
6328.2328
6327.1726
6326.0146
6324.7576
6323.4005
6321.9422
6320.3815
6318.7171
6316.9479
6315.0726
6313.0898
6310.9982
6308.7966
6306.4837
6304.0581
6301.5187
6298.8643
6296.0937
6293.2057
6290.1994
6287.0739
6283.8281
6280.4615
6276.9732
6273.3629
6269.63
6265.7744
6261.796
6257.6948
6253.4711
6249.1253
6244.6582
6240.0705
6235.3636
6230.5386
6225.5973
6220.5415
6215.3734
6210.0955
6204.7106
6199.2218
6193.6325
6187.9464
6182.1677
6176.3008
6170.3506
6164.3221
6158.221
6152.0532
6145.825
6139.5429
6133.2141
6126.846
6120.4462
6114.0229
6107.5845
6101.1397
6094.6977
6088.2677
6081.8592
6075.4822
6069.1467
6062.8627
6056.6406
6050.4908
6044.4237
6038.4497
6032.5791
6026.8221
6021.1889
6015.6891
6010.3323
6005.1276
6000.0838
5995.2089
5990.5106
5985.996
5981.6712
5977.5418
5973.6124
5969.8869
5966.3682
5963.0581
5959.9575
5957.0663
5954.3832
5951.906
5949.6313
5947.5549
5945.6712
5943.9741
5942.4561
5941.1092
5939.9247
5938.8929
5938.0038
5937.2469
5936.6114
5936.0864
5935.6606
5935.3233
5935.0636
5934.871
5934.7357
5934.6482
5934.5997
5934.5822
5934.5885
5934.6121
5934.6476
5934.6903
5934.7364
5934.7825
5934.8265
5934.8666
5934.9017
5934.9313
5934.9551
5934.9734
5934.9866
5934.9952
5934.9999
5935.0015
5935.0005
5934.9977
5934.9937
5934.9888
5934.9835
5934.978
5934.9727
5934.9677
5934.9631
5934.959
5934.9554
5934.9524
5934.9501
5934.9484
5934.9476
5934.9476
5934.9485
5934.9505
5934.9536
5934.9578
5934.9634
5934.9704
5934.9788
5934.9887
5935.0001
5935.0132
5935.0277
5935.0438
5935.0612
5935.0799
5935.0996
5935.1202
5935.1414
5935.1629
5935.1844
5935.2056
5935.226
5935.2454
5935.2634
5935.2797
5935.294
5935.3059
5935.3154
5935.3222
5935.3262
5935.3275
5935.3263
5935.3227
5935.3171
5935.3101
5935.3021
5935.2936
5935.2851
5935.2771
5935.2698
5935.2635
5935.2583
5935.2544
5935.2518
5935.2509
5935.2517
5935.2543
5935.2589
5935.2648
5935.2712
5935.2769
5935.2803
5935.2804
5935.2765
5935.2693
5935.2601
5935.2508
5935.2431
5935.2379
5935.2351
5935.2341
5935.2342
5935.2347
5935.2355
5935.2364
5935.2374
5935.238
5935.2382
5935.2379
5935.2371
5935.236
5935.2349
5935.234
5935.2333
5935.2329
5935.2327
5935.2328
5935.2331
5935.2333
5935.2337
5935.2341
5935.2341
5935.2335
5935.2324
5935.2322
5935.2336
5935.237
5935.2412
5935.2445
5935.2463
5935.2468
5935.2464
5935.2448
5935.2419
5935.2382
5935.2355
5935.2341
5935.234
5935.2344
5935.2348
5935.2348
5935.2347
5935.2344
5935.2344
5935.235
5935.2359
5935.2364
5935.2362
5935.2355
5935.2348
5935.2345
5935.2345
5935.2345
5935.2346
5935.2346
5935.2346
5935.2344
5935.2343
5935.2344
5935.2347
5935.2351
5935.2354
5935.2356
5935.2356
5935.2357
5935.2357
5935.2357
5935.2357
5935.2358
5935.2358
5935.2358
5935.2359
5935.2359
5935.2359
5935.236
5935.236
5935.236
5935.2361
5935.2361
5935.2362
5935.2362
5935.2363
5935.2364
5935.2364
5935.2365
5935.2366
5935.2366
5935.2367
5935.2368
5935.2369
5935.237
5935.2371
5935.2372
5935.2373
5935.2374
5935.2375
5935.2376
5935.2378
5935.2379
5935.238
5935.2382
5935.2383
5935.2385
5935.2387
5935.2388
5935.239
5935.2392
5935.2394
5935.2396
5935.2398
5935.24
5935.2402
5935.2404
5935.2406
5935.2409
5935.2411
5935.2413
5935.2416
5935.2418
5935.242
5935.2423
5935.2425
5935.2428
5935.243
5935.2432
5935.2435
5935.2437
5935.2439
5935.2442
5935.2444
5935.2446
5935.2448
5935.245
5935.2452
5935.2453
5935.2455
5935.2457
5935.2458
5935.2459
5935.2461
5935.2462
5935.2463
5935.2464
5935.2465
5935.2465
5935.2466
5935.2466
5935.2467
5935.2467
5935.2467
5935.2468
5935.2468
5935.2468
5935.2468
5935.2468
5935.2468
5935.2467
5935.2467
5935.2467
5935.2467
5935.2466
5935.2466
5935.2466
5935.2466
5935.2465
5935.2465
5935.2465
5935.2465
5935.2464
5935.2464
5935.2464
5935.2464
5935.2464
5935.2464
5935.2463
6150.5737
6150.5336
6150.3796
6150.1115
6149.7289
6149.2314
6148.6184
6147.8892
6147.043
6146.0788
6144.9956
6143.7922
6142.4674
6141.0197
6139.4479
6137.7503
6135.9253
6133.9712
6131.8863
6129.6688
6127.3169
6124.8286
6122.2021
6119.4353
6116.5264
6113.4734
6110.2744
6106.9274
6103.4306
6099.7821
6095.9802
6092.0231
6087.9092
6083.6369
6079.2048
6074.6117
6069.8562
6064.9375
6059.8546
6054.6069
6049.1938
6043.6151
6037.8707
6031.9609
6025.886
6019.6467
6013.2442
6006.6797
5999.9549
5993.0717
5986.0324
5978.8399
5971.4972
5964.0077
5956.3755
5948.6049
5940.7006
5932.668
5924.5127
5916.2409
5907.8594
5899.3754
5890.7964
5882.1307
5873.3871
5864.5745
5855.7029
5846.7822
5837.8232
5828.837
5819.8352
5810.8297
5801.833
5792.8578
5783.9172
5775.0246
5766.1938
5757.4385
5748.7728
5740.2109
5731.7668
5723.4548
5715.2889
5707.2829
5699.4504
5691.8047
5684.3585
5677.1242
5670.1135
5663.3373
5656.8058
5650.5283
5644.5132
5638.7677
5633.2979
5628.1088
5623.2039
5618.5855
5614.2547
5610.2108
5606.452
5602.9749
5599.7747
5596.8452
5594.1789
5591.7671
5589.5996
5587.6655
5585.9526
5584.448
5583.1382
5582.009
5581.0459
5580.2342
5579.5592
5579.0064
5578.5616
5578.2111
5577.9419
5577.7417
5577.5986
5577.5018
5577.4427
5577.4129
5577.4051
5577.4133
5577.4321
5577.4576
5577.4863
5577.5159
5577.5445
5577.5711
5577.595
5577.6159
5577.6338
5577.6489
5577.6616
5577.6722
5577.6811
5577.6886
5577.695
5577.7006
5577.7054
5577.7097
5577.7133
5577.7164
5577.7189
5577.7206
5577.7215
5577.7215
5577.7204
5577.7181
5577.7146
5577.7096
5577.7031
5577.695
5577.6852
5577.6735
5577.6601
5577.6449
5577.6278
5577.609
5577.5886
5577.5667
5577.5435
5577.5194
5577.4946
5577.4694
5577.4443
5577.4197
5577.3959
5577.3733
5577.3524
5577.3335
5577.317
5577.3032
5577.2924
5577.2847
5577.2802
5577.2789
5577.2806
5577.285
5577.2917
5577.3001
5577.3096
5577.3196
5577.3295
5577.3388
5577.3472
5577.3545
5577.3606
5577.3652
5577.3682
5577.3694
5577.3685
5577.3652
5577.3598
5577.3528
5577.3452
5577.3385
5577.3344
5577.3343
5577.3388
5577.3473
5577.3582
5577.3691
5577.378
5577.384
5577.3872
5577.3882
5577.3881
5577.3875
5577.3866
5577.3855
5577.3844
5577.3837
5577.3834
5577.3838
5577.3847
5577.386
5577.3872
5577.3884
5577.3892
5577.3897
5577.3898
5577.3897
5577.3894
5577.3891
5577.3887
5577.3882
5577.3882
5577.3889
5577.3902
5577.3905
5577.3889
5577.3849
5577.38
5577.3762
5577.3742
5577.3736
5577.3741
5577.3759
5577.3793
5577.3835
5577.3867
5577.3884
5577.3885
5577.388
5577.3876
5577.3875
5577.3878
5577.3881
5577.3881
5577.3874
5577.3864
5577.3858
5577.386
5577.3869
5577.3877
5577.3881
5577.3882
5577.3882
5577.3881
5577.3881
5577.3882
5577.3884
5577.3885
5577.3885
5577.3882
5577.3878
5577.3875
5577.3874
5577.3873
5577.3874
5577.3874
5577.3874
5577.3875
5577.3875
5577.3876
5577.3876
5577.3877
5577.3877
5577.3878
5577.3878
5577.3879
5577.388
5577.388
5577.3881
5577.3882
5577.3883
5577.3884
5577.3885
5577.3886
5577.3887
5577.3888
5577.3889
5577.389
5577.3891
5577.3893
5577.3894
5577.3896
5577.3897
5577.3899
5577.3901
5577.3903
5577.3904
5577.3906
5577.3908
5577.3911
5577.3913
5577.3915
5577.3918
5577.392
5577.3923
5577.3926
5577.3928
5577.3931
5577.3934
5577.3937
5577.3941
5577.3944
5577.3947
5577.3951
5577.3954
5577.3958
5577.3961
5577.3965
5577.3969
5577.3972
5577.3976
5577.398
5577.3983
5577.3987
5577.3991
5577.3994
5577.3998
5577.4001
5577.4005
5577.4008
5577.4011
5577.4014
5577.4017
5577.402
5577.4023
5577.4026
5577.4028
5577.403
5577.4032
5577.4034
5577.4036
5577.4038
5577.4039
5577.404
5577.4041
5577.4042
5577.4043
5577.4044
5577.4044
5577.4045
5577.4045
5577.4045
5577.4045
5577.4045
5577.4045
5577.4045
5577.4045
5577.4044
5577.4044
5577.4044
5577.4043
5577.4043
5577.4042
5577.4042
5577.4042
5577.4041
5577.4041
5577.404
5577.404
5577.404
5577.4039
5577.4039
5577.4039
5577.4039
5577.4039
6011.582
6011.5339
6011.3536
6011.0409
6010.5954
6010.0165
6009.3035
6008.4555
6007.4716
6006.3505
6005.091
6003.6916
6002.1507
6000.4667
5998.6378
5996.662
5994.5374
5992.2618
5989.8329
5987.2486
5984.5065
5981.6042
5978.5391
5975.3089
5971.9108
5968.3425
5964.6013
5960.6846
5956.59
5952.3148
5947.8566
5943.213
5938.3816
5933.3602
5928.1465
5922.7385
5917.1342
5911.3319
5905.3299
5899.1267
5892.7212
5886.1121
5879.2988
5872.2806
5865.0572
5857.6286
5849.9951
5842.1573
5834.1161
5825.8728
5817.4292
5808.7873
5799.9498
5790.9194
5781.6998
5772.2948
5762.7088
5752.9467
5743.0141
5732.917
5722.6619
5712.256
5701.7071
5691.0236
5680.2145
5669.2892
5658.2582
5647.1321
5635.9225
5624.6415
5613.3018
5601.9165
5590.4997
5579.0656
5567.6293
5556.2063
5544.8123
5533.4638
5522.1774
5510.9702
5499.8595
5488.8627
5477.9976
5467.2816
5456.7325
5446.3677
5436.2046
5426.26
5416.5505
5407.0922
5397.9002
5388.9893
5380.3731
5372.0643
5364.0746
5356.4144
5349.0927
5342.1173
5335.4942
5329.2281
5323.3218
5317.7765
5312.5916
5307.7647
5303.2917
5299.1667
5295.3819
5291.9281
5288.7943
5285.9681
5283.4357
5281.1822
5279.1916
5277.4469
5275.9308
5274.6252
5273.5121
5272.5734
5271.7912
5271.1458
5270.6193
5270.1983
5269.8676
5269.613
5269.4216
5269.2816
5269.1827
5269.1158
5269.073
5269.048
5269.0354
5269.0309
5269.0313
5269.0341
5269.0376
5269.0407
5269.0428
5269.0435
5269.0429
5269.0411
5269.0383
5269.0348
5269.0309
5269.0269
5269.0231
5269.0196
5269.0168
5269.0147
5269.0135
5269.0133
5269.0143
5269.0166
5269.0203
5269.0255
5269.0324
5269.041
5269.0515
5269.0639
5269.0783
5269.0946
5269.1129
5269.133
5269.1549
5269.1783
5269.203
5269.2288
5269.2552
5269.282
5269.3087
5269.3348
5269.36
5269.3838
5269.4059
5269.4257
5269.4429
5269.4572
5269.4684
5269.4762
5269.4806
5269.4815
5269.4793
5269.4741
5269.4666
5269.4574
5269.4471
5269.4363
5269.4258
5269.416
5269.4071
5269.3995
5269.3933
5269.3886
5269.3855
5269.3843
5269.3853
5269.3886
5269.3943
5269.4019
5269.4101
5269.4174
5269.4219
5269.422
5269.4171
5269.4079
5269.3963
5269.3847
5269.3752
5269.369
5269.3659
5269.365
5269.3651
5269.3658
5269.3668
5269.3679
5269.369
5269.3698
5269.3701
5269.3697
5269.3687
5269.3674
5269.3661
5269.3649
5269.3641
5269.3636
5269.3634
5269.3635
5269.3638
5269.3642
5269.3646
5269.3651
5269.3652
5269.3644
5269.3631
5269.3628
5269.3644
5269.3686
5269.3738
5269.3778
5269.3799
5269.3805
5269.38
5269.3781
5269.3746
5269.3702
5269.3668
5269.3651
5269.365
5269.3656
5269.366
5269.3661
5269.3659
5269.3655
5269.3655
5269.3663
5269.3674
5269.3681
5269.3678
5269.3669
5269.3661
5269.3658
5269.3658
5269.3658
5269.3659
5269.366
5269.3659
5269.3658
5269.3657
5269.3657
5269.3662
5269.3667
5269.367
5269.3672
5269.3673
5269.3674
5269.3674
5269.3675
5269.3675
5269.3676
5269.3677
5269.3677
5269.3678
5269.3679
5269.368
5269.3681
5269.3681
5269.3682
5269.3683
5269.3685
5269.3686
5269.3687
5269.3688
5269.3689
5269.3691
5269.3692
5269.3694
5269.3696
5269.3697
5269.3699
5269.3701
5269.3703
5269.3705
5269.3707
5269.371
5269.3712
5269.3715
5269.3718
5269.372
5269.3723
5269.3726
5269.373
5269.3733
5269.3736
5269.374
5269.3744
5269.3748
5269.3752
5269.3756
5269.376
5269.3764
5269.3769
5269.3773
5269.3778
5269.3783
5269.3788
5269.3793
5269.3798
5269.3803
5269.3808
5269.3813
5269.3819
5269.3824
5269.3829
5269.3834
5269.384
5269.3845
5269.385
5269.3855
5269.3859
5269.3864
5269.3869
5269.3873
5269.3877
5269.3881
5269.3885
5269.3889
5269.3892
5269.3895
5269.3898
5269.3901
5269.3903
5269.3905
5269.3907
5269.3909
5269.3911
5269.3912
5269.3913
5269.3914
5269.3915
5269.3915
5269.3916
5269.3916
5269.3916
5269.3916
5269.3916
5269.3915
5269.3915
5269.3915
5269.3914
5269.3914
5269.3913
5269.3912
5269.3912
5269.3911
5269.3911
5269.391
5269.3909
5269.3909
5269.3908
5269.3908
5269.3907
5269.3907
5269.3907
5269.3907
5269.3907
5903.2741
5903.2192
5903.0173
5902.6681
5902.1711
5901.5256
5900.7308
5899.7858
5898.6892
5897.4399
5896.0362
5894.4765
5892.7589
5890.8816
5888.8424
5886.639
5884.2691
5881.7302
5879.0197
5876.1349
5873.0731
5869.8313
5866.4066
5862.7959
5858.9964
5855.0048
5850.818
5846.433
5841.8465
5837.0554
5832.0567
5826.8473
5821.4242
5815.7843
5809.925
5803.8434
5797.5369
5791.003
5784.2392
5777.2436
5770.014
5762.5486
5754.8459
5746.9046
5738.7236
5730.3022
5721.6399
5712.7365
5703.5924
5694.208
5684.5845
5674.7231
5664.6259
5654.2951
5643.7335
5632.9445
5621.932
5610.7003
5599.2545
5587.6002
5575.7436
5563.6916
5551.4516
5539.032
5526.4416
5513.6899
5500.7873
5487.7449
5474.5743
5461.2881
5447.8994
5434.4223
5420.8714
5407.2619
5393.6101
5379.9326
5366.2468
5352.5707
5338.9227
5325.3219
5311.7879
5298.3405
5285.0001
5271.7872
5258.7225
5245.8268
5233.121
5220.6258
5208.3618
5196.3491
5184.6076
5173.1565
5162.0142
5151.1985
5140.7261
5130.6126
5120.8724
5111.5185
5102.5625
5094.0142
5085.8818
5078.1717
5070.8882
5064.0338
5057.6088
5051.6115
5046.0379
5040.8822
5036.1363
5031.7902
5027.8318
5024.2474
5021.0216
5018.1373
5015.5765
5013.3197
5011.3468
5009.6371
5008.1644
5006.9051
5005.8442
5004.9606
5004.2338
5003.6443
5003.1735
5002.804
5002.5197
5002.3062
5002.1503
5002.0405
5001.9669
5001.9208
5001.8953
5001.8845
5001.8837
5001.8894
5001.8989
5001.9103
5001.9222
5001.9337
5001.9443
5001.9539
5001.9622
5001.9693
5001.9752
5001.98
5001.9836
5001.9862
5001.9876
5001.9877
5001.9865
5001.9839
5001.9798
5001.9739
5001.9662
5001.9565
5001.9447
5001.9307
5001.9145
5001.8961
5001.8755
5001.8527
5001.828
5001.8016
5001.7737
5001.7447
5001.7149
5001.6848
5001.6548
5001.6254
5001.5971
5001.5705
5001.5458
5001.5237
5001.5045
5001.4886
5001.4762
5001.4677
5001.463
5001.4622
5001.465
5001.471
5001.4797
5001.4903
5001.502
5001.5142
5001.526
5001.537
5001.5469
5001.5553
5001.5622
5001.5676
5001.5711
5001.5725
5001.5714
5001.5676
5001.5611
5001.5525
5001.5431
5001.5347
5001.5297
5001.5296
5001.5351
5001.5455
5001.5587
5001.5717
5001.5823
5001.5892
5001.5925
5001.5935
5001.5933
5001.5926
5001.5915
5001.5903
5001.589
5001.5881
5001.5878
5001.5882
5001.5893
5001.5908
5001.5923
5001.5936
5001.5945
5001.5951
5001.5953
5001.5951
5001.5948
5001.5944
5001.5939
5001.5934
5001.5933
5001.5942
5001.5957
5001.5961
5001.5942
5001.5895
5001.5837
5001.5793
5001.577
5001.5763
5001.577
5001.5791
5001.583
5001.588
5001.5917
5001.5936
5001.5937
5001.5931
5001.5927
5001.5926
5001.5929