/*--------------------------------*- C++ -*----------------------------------*\
| =========                 |                                                 |
| \\      /  F ield         | OpenFOAM: The Open Source CFD Toolbox           |
|  \\    /   O peration     | Version:  2112                                  |
|   \\  /    A nd           | Website:  www.openfoam.com                      |
|    \\/     M anipulation  |                                                 |
\*---------------------------------------------------------------------------*/
FoamFile
{
    version     2.0;
    format      ascii;
    arch        "LSB;label=32;scalar=64";
    class       volScalarField;
    location    "5000";
    object      p;
}
// * * * * * * * * * * * * * * * * * * * * * * * * * * * * * * * * * * * * * //

dimensions      [0 2 -2 0 0 0 0];

internalField   nonuniform List<scalar> 
208896
(
21.300016
21.300016
21.300016
21.300016
21.300016
21.300016
21.300016
21.300016
21.300016
21.300016
21.300016
21.300016
21.300016
21.300016
21.300016
21.300016
21.300016
21.300016
21.300016
21.300016
21.300016
21.300016
21.300016
21.300016
21.300016
21.300016
21.300016
21.300016
21.300016
21.300016
21.300016
21.300016
21.300016
21.300016
21.300016
21.300016
21.300016
21.300016
21.300016
21.300016
21.300016
21.300016
21.300016
21.300016
21.300016
21.300016
21.300016
21.300016
21.300016
21.300016
21.300016
21.300016
21.300016
21.300016
21.300016
21.300016
21.300016
21.300016
21.300016
21.300016
21.300016
21.300016
21.300016
21.300016
21.300016
21.300016
21.300016
21.300016
21.300016
21.300016
21.300016
21.300016
21.300016
21.300016
21.300016
21.300016
21.300016
21.300015
21.300015
21.300015
21.300015
21.300015
21.300015
21.300015
21.300015
21.300015
21.300015
21.300015
21.300015
21.300015
21.300015
21.300015
21.300015
21.300015
21.300015
21.300015
21.300015
21.300015
21.300015
21.300015
21.300015
21.300015
21.300014
21.300014
21.300014
21.300014
21.300014
21.300014
21.300014
21.300014
21.300014
21.300013
21.300013
21.300013
21.300013
21.300013
21.300013
21.300012
21.300012
21.300012
21.300012
21.300012
21.300011
21.300011
21.300011
21.30001
21.30001
21.30001
21.300009
21.300009
21.300009
21.300008
21.300008
21.300007
21.300007
21.300006
21.300005
21.300005
21.300004
21.300003
21.300002
21.300002
21.300001
21.3
21.299999
21.299998
21.299997
21.299995
21.299994
21.299993
21.299991
21.29999
21.299988
21.299986
21.299985
21.299983
21.29998
21.299978
21.299976
21.299973
21.299971
21.299968
21.299965
21.299962
21.299958
21.299955
21.299951
21.299947
21.299942
21.299938
21.299933
21.299928
21.299922
21.299916
21.29991
21.299904
21.299897
21.299889
21.299881
21.299873
21.299864
21.299854
21.299844
21.299834
21.299822
21.29981
21.299797
21.299784
21.299769
21.299754
21.299737
21.29972
21.299702
21.299682
21.299661
21.299639
21.299616
21.299591
21.299564
21.299536
21.299507
21.299475
21.299441
21.299405
21.299368
21.299327
21.299284
21.299239
21.299191
21.299139
21.299085
21.299027
21.298965
21.2989
21.29883
21.298757
21.298678
21.298595
21.298507
21.298413
21.298313
21.298207
21.298095
21.297975
21.297848
21.297713
21.297569
21.297417
21.297255
21.297083
21.2969
21.296706
21.296499
21.29628
21.296047
21.2958
21.295537
21.295257
21.29496
21.294644
21.294309
21.293953
21.293574
21.293172
21.292744
21.29229
21.291807
21.291294
21.290749
21.290169
21.289554
21.2889
21.288205
21.287466
21.286681
21.285847
21.284961
21.28402
21.283019
21.281956
21.280827
21.279627
21.278352
21.276997
21.275558
21.274029
21.272405
21.27068
21.268847
21.2669
21.264831
21.262635
21.260301
21.257823
21.255191
21.252396
21.249428
21.246276
21.24293
21.239376
21.235604
21.2316
21.227349
21.222837
21.218048
21.212966
21.207574
21.201853
21.195783
21.189344
21.182515
21.175273
21.167594
21.159452
21.150822
21.141675
21.131982
21.121713
21.110835
21.099314
21.087116
21.074203
21.060537
21.046077
21.030783
21.014609
20.997511
20.979441
20.960351
20.940191
20.918907
20.896447
20.872755
20.847774
20.821446
20.793712
20.764511
20.733781
20.70146
20.667486
20.631794
20.594323
20.555008
20.513788
20.4706
20.425384
20.378082
20.328636
20.276993
20.223102
20.166914
20.108387
20.047481
19.984161
19.9184
19.850174
19.779469
19.706274
19.630591
19.552424
19.471791
19.388715
19.30323
19.215381
19.125221
19.032814
18.938234
18.841566
18.742907
18.642362
18.54005
18.436099
18.330649
18.223849
18.115861
18.006857
17.897019
17.786541
17.675627
17.564491
17.45336
17.34247
17.232069
17.122417
17.013785
16.906459
16.800735
16.696927
16.595361
16.496382
16.400352
16.307652
16.218688
16.133886
16.053702
15.978622
15.909164
15.845886
15.789387
15.740316
15.699376
15.667332
15.645021
15.63336
21.305954
21.305954
21.305954
21.305954
21.305954
21.305954
21.305954
21.305954
21.305954
21.305954
21.305954
21.305954
21.305954
21.305954
21.305954
21.305954
21.305954
21.305954
21.305954
21.305954
21.305954
21.305954
21.305954
21.305954
21.305954
21.305954
21.305954
21.305954
21.305954
21.305954
21.305954
21.305954
21.305954
21.305954
21.305954
21.305954
21.305954
21.305954
21.305954
21.305954
21.305954
21.305954
21.305954
21.305954
21.305954
21.305954
21.305954
21.305954
21.305954
21.305954
21.305954
21.305954
21.305954
21.305954
21.305954
21.305954
21.305954
21.305954
21.305954
21.305954
21.305954
21.305954
21.305954
21.305954
21.305954
21.305954
21.305954
21.305954
21.305954
21.305954
21.305954
21.305954
21.305954
21.305954
21.305954
21.305954
21.305954
21.305954
21.305954
21.305954
21.305954
21.305954
21.305954
21.305954
21.305954
21.305954
21.305954
21.305954
21.305954
21.305954
21.305954
21.305954
21.305954
21.305954
21.305954
21.305954
21.305954
21.305954
21.305954
21.305954
21.305954
21.305953
21.305953
21.305953
21.305953
21.305953
21.305953
21.305953
21.305953
21.305953
21.305953
21.305953
21.305952
21.305952
21.305952
21.305952
21.305952
21.305952
21.305952
21.305951
21.305951
21.305951
21.305951
21.305951
21.30595
21.30595
21.30595
21.30595
21.305949
21.305949
21.305949
21.305948
21.305948
21.305947
21.305947
21.305946
21.305946
21.305945
21.305945
21.305944
21.305943
21.305943
21.305942
21.305941
21.30594
21.30594
21.305939
21.305938
21.305937
21.305935
21.305934
21.305933
21.305932
21.30593
21.305929
21.305927
21.305925
21.305923
21.305921
21.305919
21.305917
21.305915
21.305912
21.305909
21.305906
21.305903
21.3059
21.305897
21.305893
21.305889
21.305885
21.30588
21.305876
21.305871
21.305865
21.30586
21.305854
21.305847
21.30584
21.305833
21.305825
21.305817
21.305808
21.305798
21.305788
21.305778
21.305766
21.305754
21.305741
21.305727
21.305713
21.305697
21.30568
21.305663
21.305644
21.305623
21.305602
21.305579
21.305555
21.305529
21.305501
21.305472
21.305441
21.305407
21.305372
21.305334
21.305293
21.30525
21.305205
21.305156
21.305104
21.305049
21.30499
21.304927
21.304861
21.30479
21.304714
21.304634
21.304548
21.304457
21.30436
21.304256
21.304146
21.304029
21.303905
21.303772
21.303631
21.303481
21.303321
21.303152
21.302971
21.302779
21.302574
21.302357
21.302125
21.301879
21.301617
21.301339
21.301043
21.300728
21.300394
21.300038
21.299659
21.299257
21.298829
21.298374
21.297891
21.297377
21.29683
21.296249
21.295632
21.294976
21.294278
21.293537
21.292749
21.291911
21.291021
21.290075
21.28907
21.288002
21.286867
21.285661
21.284379
21.283017
21.281571
21.280033
21.2784
21.276665
21.274822
21.272864
21.270784
21.268575
21.266229
21.263737
21.26109
21.258279
21.255294
21.252124
21.248759
21.245185
21.241392
21.237365
21.23309
21.228553
21.223737
21.218627
21.213205
21.207452
21.201348
21.194874
21.188008
21.180726
21.173005
21.164819
21.156142
21.146946
21.137202
21.126878
21.115943
21.104362
21.0921
21.079121
21.065385
21.050853
21.035481
21.019227
21.002045
20.983888
20.964707
20.944451
20.923068
20.900505
20.876705
20.851613
20.825169
20.797315
20.76799
20.737133
20.704681
20.670572
20.634742
20.597128
20.557669
20.5163
20.472962
20.427593
20.380136
20.330534
20.278733
20.224683
20.168337
20.109651
20.048586
19.98511
19.919193
19.850815
19.779959
19.706618
19.630792
19.552486
19.471719
19.388514
19.302907
19.21494
19.124669
19.032158
18.93748
18.840722
18.741979
18.641358
18.538977
18.434965
18.329459
18.222611
18.114582
18.005543
17.895677
17.785176
17.674244
17.563096
17.451958
17.341064
17.230664
17.121016
17.012392
16.905076
16.799365
16.695571
16.594022
16.49506
16.399048
16.306367
16.217421
16.132638
16.052473
15.977411
15.90797
15.844707
15.788222
15.739163
15.698234
15.666198
15.643893
15.632235
21.320442
21.320442
21.320442
21.320442
21.320442
21.320442
21.320442
21.320442
21.320442
21.320442
21.320442
21.320442
21.320442
21.320442
21.320442
21.320442
21.320442
21.320442
21.320442
21.320442
21.320442
21.320442
21.320442
21.320442
21.320442
21.320442
21.320442
21.320442
21.320442
21.320442
21.320442
21.320442
21.320442
21.320442
21.320442
21.320442
21.320442
21.320442
21.320442
21.320442
21.320442
21.320442
21.320442
21.320442
21.320442
21.320442
21.320442
21.320442
21.320442
21.320442
21.320442
21.320442
21.320442
21.320442
21.320442
21.320442
21.320442
21.320442
21.320442
21.320442
21.320442
21.320442
21.320442
21.320442
21.320442
21.320442
21.320442
21.320442
21.320442
21.320442
21.320442
21.320441
21.320441
21.320441
21.320441
21.320441
21.320441
21.320441
21.320441
21.320441
21.320441
21.320441
21.320441
21.320441
21.320441
21.320441
21.320441
21.320441
21.320441
21.320441
21.320441
21.320441
21.320441
21.320441
21.320441
21.320441
21.320441
21.320441
21.320441
21.320441
21.32044
21.32044
21.32044
21.32044
21.32044
21.32044
21.32044
21.32044
21.32044
21.32044
21.320439
21.320439
21.320439
21.320439
21.320439
21.320439
21.320438
21.320438
21.320438
21.320438
21.320438
21.320437
21.320437
21.320437
21.320436
21.320436
21.320436
21.320435
21.320435
21.320435
21.320434
21.320434
21.320433
21.320433
21.320432
21.320431
21.320431
21.32043
21.320429
21.320428
21.320428
21.320427
21.320426
21.320425
21.320424
21.320423
21.320421
21.32042
21.320419
21.320417
21.320416
21.320414
21.320412
21.320411
21.320409
21.320407
21.320404
21.320402
21.320399
21.320397
21.320394
21.320391
21.320388
21.320384
21.320381
21.320377
21.320373
21.320369
21.320364
21.320359
21.320354
21.320349
21.320343
21.320337
21.32033
21.320323
21.320316
21.320308
21.3203
21.320291
21.320282
21.320272
21.320261
21.32025
21.320238
21.320226
21.320212
21.320198
21.320183
21.320167
21.32015
21.320132
21.320113
21.320092
21.320071
21.320048
21.320024
21.319998
21.319971
21.319942
21.319911
21.319878
21.319843
21.319806
21.319767
21.319726
21.319682
21.319635
21.319585
21.319532
21.319476
21.319417
21.319354
21.319287
21.319216
21.31914
21.31906
21.318975
21.318885
21.318789
21.318687
21.318578
21.318463
21.318341
21.318211
21.318074
21.317927
21.317772
21.317607
21.317431
21.317245
21.317047
21.316837
21.316613
21.316376
21.316123
21.315855
21.315571
21.315268
21.314946
21.314605
21.314242
21.313856
21.313446
21.313011
21.312548
21.312056
21.311533
21.310978
21.310387
21.30976
21.309094
21.308386
21.307633
21.306833
21.305983
21.305081
21.304121
21.303102
21.302018
21.300867
21.299644
21.298345
21.296964
21.295498
21.293939
21.292284
21.290525
21.288657
21.286673
21.284565
21.282326
21.279948
21.277423
21.274741
21.271892
21.268868
21.265656
21.262246
21.258626
21.254782
21.250702
21.246372
21.241775
21.236897
21.231721
21.226229
21.220401
21.21422
21.207663
21.200709
21.193335
21.185517
21.177229
21.168444
21.159134
21.14927
21.138819
21.127751
21.116031
21.103622
21.090489
21.076591
21.061889
21.04634
21.0299
21.012523
20.994163
20.974769
20.954292
20.932679
20.909876
20.885827
20.860476
20.833765
20.805634
20.776022
20.74487
20.712114
20.677692
20.641541
20.603599
20.563804
20.522093
20.478406
20.432684
20.384868
20.334905
20.28274
20.228324
20.17161
20.112558
20.051128
19.98729
19.921016
19.852284
19.781082
19.707403
19.631246
19.552621
19.471544
19.388043
19.302151
19.213915
19.123389
19.030637
18.935735
18.838768
18.739834
18.639038
18.536498
18.432343
18.326711
18.219753
18.111629
18.00251
17.892577
17.782024
17.671052
17.559876
17.44872
17.337819
17.227421
17.117783
17.009177
16.901884
16.796202
16.692442
16.590929
16.492007
16.396037
16.303399
16.214497
16.129757
16.049635
15.974613
15.905211
15.841984
15.785532
15.736502
15.695596
15.663579
15.641288
15.629637
21.342183
21.342183
21.342183
21.342183
21.342183
21.342183
21.342183
21.342183
21.342183
21.342183
21.342183
21.342183
21.342183
21.342183
21.342183
21.342183
21.342183
21.342183
21.342183
21.342183
21.342183
21.342183
21.342183
21.342183
21.342183
21.342183
21.342183
21.342183
21.342183
21.342183
21.342183
21.342183
21.342183
21.342183
21.342183
21.342183
21.342183
21.342183
21.342183
21.342183
21.342183
21.342183
21.342183
21.342183
21.342183
21.342183
21.342183
21.342183
21.342183
21.342183
21.342183
21.342183
21.342183
21.342183
21.342183
21.342183
21.342183
21.342183
21.342183
21.342183
21.342183
21.342183
21.342183
21.342183
21.342183
21.342183
21.342183
21.342183
21.342183
21.342183
21.342183
21.342183
21.342183
21.342183
21.342183
21.342183
21.342183
21.342183
21.342183
21.342183
21.342183
21.342183
21.342183
21.342183
21.342183
21.342183
21.342183
21.342183
21.342183
21.342183
21.342183
21.342183
21.342183
21.342183
21.342183
21.342183
21.342182
21.342182
21.342182
21.342182
21.342182
21.342182
21.342182
21.342182
21.342182
21.342182
21.342182
21.342182
21.342182
21.342181
21.342181
21.342181
21.342181
21.342181
21.342181
21.342181
21.34218
21.34218
21.34218
21.34218
21.342179
21.342179
21.342179
21.342179
21.342178
21.342178
21.342178
21.342177
21.342177
21.342177
21.342176
21.342176
21.342175
21.342175
21.342174
21.342174
21.342173
21.342172
21.342172
21.342171
21.34217
21.342169
21.342168
21.342167
21.342166
21.342165
21.342164
21.342163
21.342162
21.34216
21.342159
21.342157
21.342156
21.342154
21.342152
21.34215
21.342148
21.342146
21.342143
21.342141
21.342138
21.342135
21.342132
21.342129
21.342126
21.342122
21.342118
21.342114
21.34211
21.342105
21.3421
21.342095
21.342089
21.342083
21.342077
21.34207
21.342063
21.342055
21.342047
21.342039
21.34203
21.34202
21.34201
21.341999
21.341987
21.341975
21.341962
21.341948
21.341933
21.341917
21.3419
21.341882
21.341863
21.341843
21.341822
21.341799
21.341775
21.341749
21.341722
21.341693
21.341662
21.341629
21.341594
21.341557
21.341518
21.341476
21.341432
21.341384
21.341334
21.341281
21.341224
21.341164
21.3411
21.341032
21.340959
21.340883
21.340801
21.340714
21.340622
21.340524
21.34042
21.340309
21.340192
21.340067
21.339934
21.339793
21.339644
21.339485
21.339315
21.339136
21.338945
21.338742
21.338527
21.338298
21.338055
21.337796
21.337522
21.33723
21.33692
21.336591
21.336241
21.335869
21.335474
21.335054
21.334609
21.334135
21.333632
21.333097
21.332528
21.331925
21.331283
21.330602
21.329878
21.329108
21.328291
21.327422
21.3265
21.325519
21.324478
21.323371
21.322196
21.320947
21.31962
21.31821
21.316713
21.315122
21.313432
21.311637
21.30973
21.307705
21.305554
21.303269
21.300843
21.298266
21.295529
21.292623
21.289538
21.286261
21.282783
21.27909
21.27517
21.271009
21.266593
21.261905
21.256931
21.251653
21.246053
21.240113
21.233811
21.227127
21.22004
21.212524
21.204557
21.196111
21.18716
21.177676
21.167627
21.156983
21.145711
21.133777
21.121143
21.107773
21.093627
21.078665
21.062844
21.046119
21.028444
21.009772
20.990054
20.969238
20.947272
20.924102
20.899672
20.873926
20.846806
20.818251
20.788202
20.756599
20.723378
20.688479
20.651839
20.613397
20.573089
20.530857
20.486639
20.440378
20.392018
20.341504
20.288784
20.233811
20.176541
20.116932
20.054949
19.990561
19.923743
19.854477
19.78275
19.708557
19.631901
19.552791
19.471248
19.387297
19.300977
19.212332
19.12142
19.028306
18.933065
18.835785
18.736561
18.635501
18.532722
18.428352
18.322531
18.215407
18.10714
17.9979
17.887869
17.777236
17.666205
17.554987
17.443806
17.332896
17.222501
17.112879
17.004299
16.897042
16.791405
16.687695
16.586239
16.487378
16.391471
16.298899
16.210063
16.125389
16.04533
15.970371
15.901027
15.837855
15.781452
15.732465
15.691596
15.659608
15.637337
15.625697
21.369899
21.369899
21.369899
21.369899
21.369899
21.369899
21.369899
21.369899
21.369899
21.369899
21.369899
21.369899
21.369899
21.369899
21.369899
21.369899
21.369899
21.369899
21.369899
21.369899
21.369899
21.369899
21.369899
21.369899
21.369899
21.369899
21.369899
21.369899
21.369899
21.369899
21.369899
21.369899
21.369899
21.369899
21.369899
21.369899
21.369899
21.369899
21.369899
21.369899
21.369899
21.369899
21.369899
21.369899
21.369899
21.369899
21.369899
21.369899
21.369899
21.369899
21.369899
21.369899
21.369899
21.369899
21.369899
21.369899
21.369899
21.369899
21.369899
21.369899
21.369899
21.369899
21.369899
21.369899
21.369899
21.369899
21.369899
21.369899
21.369899
21.369899
21.369899
21.369899
21.369899
21.369899
21.369899
21.369899
21.369899
21.369899
21.369899
21.369899
21.369899
21.369899
21.369899
21.369899
21.369899
21.369899
21.369899
21.369899
21.369899
21.369899
21.369899
21.369899
21.369898
21.369898
21.369898
21.369898
21.369898
21.369898
21.369898
21.369898
21.369898
21.369898
21.369898
21.369898
21.369898
21.369898
21.369898
21.369897
21.369897
21.369897
21.369897
21.369897
21.369897
21.369897
21.369897
21.369896
21.369896
21.369896
21.369896
21.369896
21.369895
21.369895
21.369895
21.369895
21.369894
21.369894
21.369894
21.369893
21.369893
21.369893
21.369892
21.369892
21.369891
21.369891
21.36989
21.36989
21.369889
21.369888
21.369888
21.369887
21.369886
21.369885
21.369884
21.369884
21.369883
21.369881
21.36988
21.369879
21.369878
21.369877
21.369875
21.369874
21.369872
21.36987
21.369868
21.369866
21.369864
21.369862
21.36986
21.369857
21.369855
21.369852
21.369849
21.369846
21.369842
21.369839
21.369835
21.369831
21.369826
21.369822
21.369817
21.369812
21.369806
21.3698
21.369794
21.369787
21.36978
21.369773
21.369765
21.369756
21.369747
21.369737
21.369727
21.369716
21.369705
21.369692
21.369679
21.369665
21.36965
21.369635
21.369618
21.3696
21.369581
21.369561
21.36954
21.369517
21.369493
21.369467
21.36944
21.369411
21.36938
21.369347
21.369312
21.369275
21.369235
21.369193
21.369149
21.369101
21.369051
21.368997
21.36894
21.368879
21.368815
21.368746
21.368673
21.368596
21.368513
21.368426
21.368333
21.368234
21.368128
21.368016
21.367897
21.367771
21.367636
21.367493
21.367341
21.36718
21.367008
21.366825
21.366631
21.366425
21.366205
21.365972
21.365724
21.365461
21.365181
21.364883
21.364566
21.36423
21.363873
21.363493
21.363089
21.362659
21.362203
21.361718
21.361203
21.360656
21.360074
21.359455
21.358798
21.3581
21.357358
21.356569
21.355731
21.354841
21.353894
21.352889
21.351821
21.350686
21.34948
21.348199
21.346838
21.345392
21.343856
21.342224
21.340491
21.33865
21.336694
21.334617
21.33241
21.330067
21.327578
21.324935
21.322128
21.319148
21.315984
21.312624
21.309057
21.305271
21.301252
21.296986
21.292458
21.287653
21.282554
21.277145
21.271406
21.265318
21.258861
21.252013
21.244752
21.237053
21.228893
21.220243
21.211078
21.201367
21.19108
21.180186
21.16865
21.156438
21.143513
21.129838
21.115371
21.100073
21.0839
21.066807
21.048747
21.029673
21.009536
20.988283
20.965862
20.94222
20.917299
20.891044
20.863396
20.834297
20.803686
20.771502
20.737685
20.702173
20.664905
20.62582
20.584856
20.541955
20.497058
20.450108
20.401051
20.349833
20.296405
20.240722
20.18274
20.122421
20.059733
19.994645
19.927137
19.857191
19.784797
19.709953
19.632663
19.552939
19.470804
19.386285
19.299422
19.210262
19.118863
19.025291
18.929623
18.831947
18.732359
18.630966
18.527886
18.423247
18.317188
18.209856
18.101411
17.992021
17.881866
17.771136
17.660031
17.548762
17.437551
17.326629
17.21624
17.10664
16.998095
16.890885
16.785304
16.681661
16.580277
16.481493
16.385667
16.293179
16.204427
16.119836
16.03986
15.964979
15.89571
15.832607
15.776267
15.727335
15.686513
15.654561
15.632315
15.620689
21.40302
21.40302
21.40302
21.40302
21.40302
21.40302
21.40302
21.40302
21.40302
21.40302
21.40302
21.40302
21.40302
21.40302
21.40302
21.40302
21.40302
21.40302
21.40302
21.40302
21.40302
21.40302
21.40302
21.40302
21.40302
21.40302
21.40302
21.40302
21.40302
21.40302
21.40302
21.40302
21.40302
21.40302
21.40302
21.40302
21.40302
21.40302
21.40302
21.40302
21.40302
21.40302
21.40302
21.40302
21.40302
21.40302
21.40302
21.40302
21.40302
21.40302
21.40302
21.40302
21.40302
21.40302
21.40302
21.40302
21.40302
21.40302
21.40302
21.40302
21.40302
21.40302
21.40302
21.40302
21.40302
21.40302
21.40302
21.40302
21.40302
21.40302
21.40302
21.40302
21.40302
21.40302
21.40302
21.40302
21.40302
21.40302
21.40302
21.40302
21.40302
21.40302
21.40302
21.40302
21.40302
21.40302
21.40302
21.40302
21.40302
21.40302
21.40302
21.40302
21.40302
21.40302
21.40302
21.40302
21.40302
21.40302
21.403019
21.403019
21.403019
21.403019
21.403019
21.403019
21.403019
21.403019
21.403019
21.403019
21.403019
21.403018
21.403018
21.403018
21.403018
21.403018
21.403018
21.403018
21.403017
21.403017
21.403017
21.403017
21.403017
21.403016
21.403016
21.403016
21.403016
21.403015
21.403015
21.403014
21.403014
21.403014
21.403013
21.403013
21.403012
21.403012
21.403011
21.403011
21.40301
21.403009
21.403009
21.403008
21.403007
21.403006
21.403005
21.403004
21.403003
21.403002
21.403001
21.403
21.402999
21.402997
21.402996
21.402994
21.402992
21.402991
21.402989
21.402987
21.402985
21.402982
21.40298
21.402977
21.402975
21.402972
21.402968
21.402965
21.402962
21.402958
21.402954
21.40295
21.402945
21.40294
21.402935
21.40293
21.402924
21.402918
21.402912
21.402905
21.402897
21.40289
21.402881
21.402873
21.402863
21.402853
21.402843
21.402831
21.402819
21.402807
21.402793
21.402779
21.402763
21.402747
21.40273
21.402711
21.402692
21.402671
21.402649
21.402626
21.402601
21.402574
21.402546
21.402516
21.402484
21.40245
21.402414
21.402376
21.402335
21.402291
21.402245
21.402196
21.402144
21.402089
21.40203
21.401968
21.401901
21.401831
21.401756
21.401676
21.401591
21.401501
21.401405
21.401303
21.401194
21.401079
21.400956
21.400826
21.400688
21.400541
21.400384
21.400218
21.400041
21.399853
21.399654
21.399441
21.399216
21.398976
21.398721
21.39845
21.398161
21.397855
21.39753
21.397184
21.396816
21.396425
21.396009
21.395568
21.395098
21.3946
21.394069
21.393506
21.392907
21.39227
21.391594
21.390875
21.390111
21.389299
21.388436
21.387519
21.386545
21.38551
21.38441
21.383241
21.381999
21.380679
21.379277
21.377788
21.376206
21.374525
21.372739
21.370842
21.368827
21.366687
21.364414
21.362
21.359436
21.356713
21.353822
21.350752
21.347492
21.344032
21.340358
21.336458
21.332319
21.327926
21.323264
21.318316
21.313067
21.307498
21.30159
21.295324
21.288679
21.281632
21.274161
21.266241
21.257847
21.248951
21.239525
21.229541
21.218966
21.207768
21.195913
21.183366
21.17009
21.156045
21.141192
21.125488
21.10889
21.091352
21.072829
21.053271
21.032628
21.010849
20.987881
20.96367
20.938159
20.911293
20.883012
20.853259
20.821973
20.789094
20.754563
20.718317
20.680298
20.640444
20.598697
20.554998
20.509291
20.46152
20.411632
20.359577
20.305308
20.24878
20.189955
20.128795
20.065271
19.999356
19.931031
19.860281
19.7871
19.711488
19.633452
19.553006
19.470174
19.384988
19.297489
19.207724
19.115755
19.021647
18.925481
18.827342
18.727329
18.625549
18.52212
18.417168
18.310832
18.20326
18.094608
17.985045
17.874749
17.763907
17.652719
17.541393
17.430148
17.319215
17.208836
17.099262
16.99076
16.883608
16.778096
16.674531
16.573233
16.474542
16.378813
16.286423
16.197771
16.11328
16.0334
15.958613
15.889432
15.826411
15.770145
15.721279
15.680511
15.648603
15.626387
15.614777
21.441304
21.441304
21.441304
21.441304
21.441304
21.441304
21.441304
21.441304
21.441304
21.441304
21.441304
21.441304
21.441304
21.441304
21.441304
21.441304
21.441304
21.441304
21.441304
21.441304
21.441304
21.441304
21.441304
21.441304
21.441304
21.441304
21.441304
21.441304
21.441304
21.441304
21.441304
21.441304
21.441304
21.441304
21.441304
21.441304
21.441304
21.441304
21.441304
21.441304
21.441304
21.441304
21.441304
21.441304
21.441304
21.441304
21.441304
21.441304
21.441304
21.441304
21.441304
21.441304
21.441304
21.441304
21.441304
21.441304
21.441304
21.441304
21.441304
21.441304
21.441304
21.441304
21.441304
21.441304
21.441304
21.441304
21.441304
21.441304
21.441304
21.441304
21.441304
21.441304
21.441304
21.441304
21.441304
21.441304
21.441304
21.441304
21.441304
21.441304
21.441304
21.441304
21.441304
21.441304
21.441304
21.441304
21.441304
21.441304
21.441304
21.441304
21.441304
21.441304
21.441304
21.441304
21.441304
21.441304
21.441304
21.441304
21.441304
21.441303
21.441303
21.441303
21.441303
21.441303
21.441303
21.441303
21.441303
21.441303
21.441303
21.441303
21.441302
21.441302
21.441302
21.441302
21.441302
21.441302
21.441301
21.441301
21.441301
21.441301
21.441301
21.4413
21.4413
21.4413
21.441299
21.441299
21.441299
21.441298
21.441298
21.441298
21.441297
21.441297
21.441296
21.441296
21.441295
21.441294
21.441294
21.441293
21.441292
21.441292
21.441291
21.44129
21.441289
21.441288
21.441287
21.441286
21.441285
21.441283
21.441282
21.44128
21.441279
21.441277
21.441275
21.441274
21.441272
21.44127
21.441267
21.441265
21.441262
21.44126
21.441257
21.441254
21.441251
21.441247
21.441243
21.44124
21.441235
21.441231
21.441226
21.441221
21.441216
21.44121
21.441204
21.441198
21.441191
21.441184
21.441177
21.441168
21.44116
21.441151
21.441141
21.44113
21.441119
21.441108
21.441095
21.441082
21.441068
21.441053
21.441037
21.44102
21.441002
21.440983
21.440962
21.440941
21.440918
21.440893
21.440867
21.44084
21.44081
21.440779
21.440746
21.44071
21.440673
21.440633
21.440591
21.440546
21.440498
21.440447
21.440393
21.440335
21.440274
21.440209
21.44014
21.440066
21.439988
21.439905
21.439817
21.439723
21.439624
21.439518
21.439405
21.439285
21.439158
21.439023
21.438879
21.438726
21.438564
21.438392
21.438208
21.438013
21.437806
21.437586
21.437352
21.437103
21.436838
21.436557
21.436258
21.435941
21.435603
21.435245
21.434864
21.434459
21.434028
21.43357
21.433084
21.432567
21.432018
21.431434
21.430814
21.430155
21.429454
21.42871
21.427919
21.427078
21.426185
21.425236
21.424227
21.423155
21.422017
21.420807
21.419521
21.418156
21.416705
21.415163
21.413526
21.411786
21.409938
21.407975
21.40589
21.403676
21.401324
21.398826
21.396173
21.393356
21.390365
21.38719
21.383818
21.380238
21.376439
21.372406
21.368125
21.363582
21.358762
21.353647
21.34822
21.342463
21.336357
21.329882
21.323015
21.315734
21.308016
21.299836
21.291167
21.281981
21.272251
21.261945
21.251032
21.239478
21.22725
21.21431
21.200621
21.186144
21.170837
21.154659
21.137564
21.119507
21.100442
21.080318
21.059085
21.036693
21.013086
20.988212
20.962014
20.934435
20.905418
20.874905
20.842835
20.80915
20.773789
20.736694
20.697805
20.657063
20.61441
20.569789
20.523147
20.474429
20.423585
20.370567
20.315331
20.257834
20.198041
20.135918
20.071437
20.004576
19.935318
19.863653
19.789575
19.713089
19.634204
19.552938
19.469317
19.383374
19.295154
19.204706
19.112092
19.017381
18.920652
18.821993
18.721502
18.619288
18.515466
18.410165
18.30352
18.195679
18.086798
17.977043
17.866591
17.755627
17.644348
17.53296
17.421682
17.31074
17.200374
17.090834
16.982384
16.875298
16.769867
16.666392
16.565195
16.46661
16.370992
16.278716
16.190178
16.105801
16.026032
15.951352
15.882272
15.819344
15.763163
15.714371
15.673666
15.641808
15.619626
15.608034
21.484493
21.484493
21.484493
21.484493
21.484493
21.484493
21.484493
21.484493
21.484493
21.484493
21.484493
21.484493
21.484493
21.484493
21.484493
21.484493
21.484493
21.484493
21.484493
21.484493
21.484493
21.484493
21.484493
21.484493
21.484493
21.484493
21.484493
21.484493
21.484493
21.484493
21.484493
21.484493
21.484493
21.484493
21.484493
21.484493
21.484493
21.484493
21.484493
21.484493
21.484493
21.484493
21.484493
21.484493
21.484493
21.484493
21.484493
21.484493
21.484493
21.484493
21.484493
21.484493
21.484493
21.484493
21.484493
21.484493
21.484493
21.484493
21.484493
21.484493
21.484493
21.484493
21.484493
21.484493
21.484493
21.484493
21.484493
21.484493
21.484493
21.484493
21.484493
21.484493
21.484493
21.484493
21.484493
21.484493
21.484493
21.484493
21.484493
21.484493
21.484493
21.484493
21.484493
21.484493
21.484493
21.484493
21.484493
21.484493
21.484493
21.484493
21.484493
21.484493
21.484493
21.484493
21.484493
21.484493
21.484493
21.484493
21.484493
21.484492
21.484492
21.484492
21.484492
21.484492
21.484492
21.484492
21.484492
21.484492
21.484492
21.484492
21.484491
21.484491
21.484491
21.484491
21.484491
21.484491
21.48449
21.48449
21.48449
21.48449
21.48449
21.484489
21.484489
21.484489
21.484488
21.484488
21.484488
21.484487
21.484487
21.484486
21.484486
21.484485
21.484485
21.484484
21.484484
21.484483
21.484483
21.484482
21.484481
21.48448
21.484479
21.484478
21.484477
21.484476
21.484475
21.484474
21.484473
21.484472
21.48447
21.484469
21.484467
21.484465
21.484464
21.484462
21.48446
21.484457
21.484455
21.484453
21.48445
21.484447
21.484444
21.484441
21.484438
21.484434
21.48443
21.484426
21.484422
21.484417
21.484413
21.484407
21.484402
21.484396
21.48439
21.484383
21.484376
21.484369
21.484361
21.484352
21.484343
21.484334
21.484324
21.484313
21.484301
21.484289
21.484276
21.484263
21.484248
21.484232
21.484216
21.484198
21.484179
21.484159
21.484138
21.484116
21.484092
21.484067
21.484039
21.484011
21.48398
21.483948
21.483913
21.483877
21.483838
21.483796
21.483752
21.483705
21.483655
21.483602
21.483546
21.483486
21.483423
21.483355
21.483283
21.483207
21.483126
21.483039
21.482947
21.48285
21.482746
21.482636
21.482519
21.482394
21.482262
21.482121
21.481972
21.481813
21.481644
21.481465
21.481274
21.481071
21.480855
21.480626
21.480383
21.480124
21.479849
21.479556
21.479245
21.478915
21.478564
21.478191
21.477795
21.477373
21.476925
21.476449
21.475944
21.475406
21.474835
21.474228
21.473583
21.472897
21.472169
21.471394
21.470572
21.469698
21.468769
21.467782
21.466733