/*--------------------------------*- C++ -*----------------------------------*\
| =========                 |                                                 |
| \\      /  F ield         | OpenFOAM: The Open Source CFD Toolbox           |
|  \\    /   O peration     | Version:  2112                                  |
|   \\  /    A nd           | Website:  www.openfoam.com                      |
|    \\/     M anipulation  |                                                 |
\*---------------------------------------------------------------------------*/
FoamFile
{
    version     2.0;
    format      ascii;
    arch        "LSB;label=32;scalar=64";
    class       volVectorField;
    location    "5000";
    object      wallShearStress;
}
// * * * * * * * * * * * * * * * * * * * * * * * * * * * * * * * * * * * * * //

dimensions      [0 2 -2 0 0 0 0];

internalField   uniform (0 0 0);

boundaryField
{
    frontAndBack
    {
        type            empty;
    }
    frontAndBack
    {
        type            empty;
    }
    inlet
    {
        type            calculated;
        value           uniform (0 0 0);
    }
    outlet
    {
        type            calculated;
        value           uniform (0 0 0);
    }
    symmetry
    {
        type            symmetryPlane;
    }
    bottomWall
    {
        type            calculated;
        value           nonuniform List<vector> 
448
(
(-49.517304 0 2450.9225)
(-19.214967 0 -0.0046747485)
(-13.937563 0 194.25471)
(-11.748477 0 -0.00045128912)
(-10.415607 0 108.48458)
(-9.4819665 0 -0.00020667168)
(-8.7962192 0 77.373324)
(-8.3215954 0 -8.8278802e-05)
(-8.1022649 0 65.64669)
(-8.2709675 0 0.00015416619)
(-9.3249343 0 86.954692)
(-10.582713 0 0.00026750388)
(-11.443557 0 130.95517)
(-11.922662 0 9.2426245e-05)
(-12.179366 0 148.337)
(-12.310821 0 2.3006092e-05)
(-12.363312 0 152.85149)
(-12.359598 0 -5.2019035e-06)
(-12.321436 0 151.81777)
(-12.261829 0 -1.6501214e-05)
(-12.188191 0 148.55197)
(-12.107586 0 -2.0241927e-05)
(-12.024017 0 144.57697)
(-11.939831 0 -2.0567758e-05)
(-11.856431 0 140.57494)
(-11.774553 0 -1.9756558e-05)
(-11.6947 0 136.76598)
(-11.617195 0 -1.854522e-05)
(-11.542162 0 133.22149)
(-11.469649 0 -1.7247791e-05)
(-11.399612 0 129.95113)
(-11.332006 0 -1.6007757e-05)
(-11.266663 0 126.93768)
(-11.203525 0 -1.4873169e-05)
(-11.142526 0 124.15586)
(-11.083582 0 -1.3821991e-05)
(-11.026583 0 121.58552)
(-10.971431 0 -1.2876072e-05)
(-10.918026 0 119.20327)
(-10.866281 0 -1.202506e-05)
(-10.816121 0 116.98846)
(-10.767423 0 -1.1273808e-05)
(-10.720084 0 114.92019)
(-10.674077 0 -1.0594631e-05)
(-10.629356 0 112.98319)
(-10.585843 0 -9.9738635e-06)
(-10.543487 0 111.1651)
(-10.502242 0 -9.4164176e-06)
(-10.461977 0 109.45295)
(-10.422567 0 -8.9677564e-06)
(-10.383924 0 107.82587)
(-10.346042 0 -8.5734833e-06)
(-10.308889 0 106.27318)
(-10.272483 0 -8.1947942e-06)
(-10.236764 0 104.79132)
(-10.20174 0 -7.8369919e-06)
(-10.167395 0 103.37592)
(-10.133722 0 -7.4920756e-06)
(-10.100698 0 102.02409)
(-10.068306 0 -7.1679601e-06)
(-10.036513 0 100.73159)
(-10.005317 0 -6.8636518e-06)
(-9.97469 0 99.494435)
(-9.9446222 0 -6.5793951e-06)
(-9.9150728 0 98.308662)
(-9.886045 0 -6.3136898e-06)
(-9.8575168 0 97.170631)
(-9.829483 0 -6.0620188e-06)
(-9.8019165 0 96.077561)
(-9.774812 0 -5.8265566e-06)
(-9.7481445 0 95.026315)
(-9.7219003 0 -5.6107436e-06)
(-9.6960392 0 94.013172)
(-9.6705747 0 -5.4079722e-06)
(-9.6454984 0 93.035635)
(-9.6208107 0 -5.210828e-06)
(-9.5964873 0 92.092564)
(-9.5725263 0 -5.0254429e-06)
(-9.548913 0 91.181734)
(-9.5256399 0 -4.8500899e-06)
(-9.5026972 0 90.301249)
(-9.4800738 0 -4.6856851e-06)
(-9.4577511 0 89.449051)
(-9.4357366 0 -4.5299195e-06)
(-9.4140068 0 88.62352)
(-9.392574 0 -4.3806354e-06)
(-9.3714162 0 87.823437)
(-9.3505315 0 -4.2396058e-06)
(-9.3299133 0 87.047279)
(-9.3095522 0 -4.1055323e-06)
(-9.2894437 0 86.29376)
(-9.2695825 0 -3.9781115e-06)
(-9.2499541 0 85.561648)
(-9.2305662 0 -3.8559278e-06)
(-9.2114048 0 84.849974)
(-9.1924614 0 -3.7426059e-06)
(-9.1737193 0 84.157122)
(-9.1551795 0 -3.6357822e-06)
(-9.1368434 0 83.481905)
(-9.1187143 0 -3.5302093e-06)
(-9.1007748 0 82.824099)
(-9.0830322 0 -3.4290811e-06)
(-9.0654787 0 82.182901)
(-9.0481057 0 -3.333108e-06)
(-9.0309128 0 81.557383)
(-9.0139005 0 -3.2407718e-06)
(-8.9970489 0 80.946886)
(-8.9803781 0 -3.1519416e-06)
(-8.9638599 0 80.350781)
(-8.9474903 0 -3.0700977e-06)
(-8.9312818 0 79.767791)
(-8.9152363 0 -2.9865015e-06)
(-8.8993417 0 79.19828)
(-8.8835926 0 -2.9080394e-06)
(-8.8679939 0 78.641313)
(-8.8525325 0 -2.8334081e-06)
(-8.8372057 0 78.096202)
(-8.8220215 0 -2.7604362e-06)
(-8.8069668 0 77.562662)
(-8.7920377 0 -2.6914404e-06)
(-8.7772422 0 77.039979)
(-8.7625725 0 -2.6242789e-06)
(-8.7480193 0 76.527838)
(-8.7335889 0 -2.559519e-06)
(-8.7192786 0 76.025817)
(-8.705082 0 -2.4978144e-06)
(-8.6909935 0 75.533365)
(-8.6770225 0 -2.4382647e-06)
(-8.6631461 0 75.050099)
(-8.649367 0 -2.3831311e-06)
(-8.6356934 0 74.575199)
(-8.6221267 0 -2.3266069e-06)
(-8.6086575 0 74.108981)
(-8.5952829 0 -2.2730722e-06)
(-8.5820105 0 73.650901)
(-8.568836 0 -2.2204321e-06)
(-8.5557482 0 73.200826)
(-8.5427544 0 -2.1697352e-06)
(-8.5298541 0 72.758409)
(-8.5170403 0 -2.1210941e-06)
(-8.5043098 0 72.323283)
(-8.4916688 0 -2.0732067e-06)
(-8.4791121 0 71.89534)
(-8.4666357 0 -2.0277306e-06)
(-8.4542378 0 71.474135)
(-8.4419228 0 -1.9826617e-06)
(-8.4296875 0 71.059629)
(-8.417526 0 -1.9400205e-06)
(-8.4054369 0 70.651368)
(-8.3934268 0 -1.8975261e-06)
(-8.3814896 0 70.249367)
(-8.3696195 0 -1.8574617e-06)
(-8.3578206 0 69.853163)
(-8.3460928 0 -1.8174717e-06)
(-8.3344338 0 69.462785)
(-8.3228387 0 -1.7796542e-06)
(-8.3113068 0 69.077819)
(-8.2998442 0 -1.7419078e-06)
(-8.2884436 0 68.698295)
(-8.2771042 0 -1.7060755e-06)
(-8.2658242 0 68.323847)
(-8.2546069 0 -1.670491e-06)
(-8.2434499 0 67.954465)
(-8.2323479 0 -1.6366479e-06)
(-8.2213026 0 67.589815)
(-8.2103161 0 -1.6028254e-06)
(-8.1993864 0 67.229936)
(-8.1885066 0 -1.5708666e-06)
(-8.1776807 0 66.874461)
(-8.1668997 0 -1.5404047e-06)
(-8.1561688 0 66.523089)
(-8.1454817 0 -1.5106705e-06)
(-8.1348451 0 66.175704)
(-8.1242607 0 -1.4803382e-06)
(-8.113722 0 65.832483)
(-8.1032428 0 -1.4522622e-06)
(-8.0927715 0 65.492949)
(-8.0823536 0 -1.4243324e-06)
(-8.0719956 0 65.157112)
(-8.061689 0 -1.3946621e-06)
(-8.051424 0 64.825428)
(-8.0412046 0 -1.3671415e-06)
(-8.0310295 0 64.497434)
(-8.0208952 0 -1.3407488e-06)
(-8.0107994 0 64.172906)
(-8.0007448 0 -1.3147863e-06)
(-7.9907311 0 63.851782)
(-7.9807583 0 -1.2892841e-06)
(-7.9708215 0 63.533994)
(-7.9609213 0 -1.2647573e-06)
(-7.9510596 0 63.219347)
(-7.941237 0 -1.2402538e-06)
(-7.9314487 0 62.907878)
(-7.9216937 0 -1.2168975e-06)
(-7.9119746 0 62.599341)
(-7.9022923 0 -1.1935131e-06)
(-7.8926414 0 62.293786)
(-7.8830235 0 -1.1711671e-06)
(-7.8734359 0 61.990992)
(-7.8638838 0 -1.1487169e-06)
(-7.8543635 0 61.691025)
(-7.844871 0 -1.1274249e-06)
(-7.8354087 0 61.393628)
(-7.825977 0 -1.1060045e-06)
(-7.8165769 0 61.098873)
(-7.8072049 0 -1.0853949e-06)
(-7.797858 0 60.806588)
(-7.7885404 0 -1.0650521e-06)
(-7.7792508 0 60.516742)
(-7.7699904 0 -1.045063e-06)
(-7.7607526 0 60.22928)
(-7.7515405 0 -1.0257946e-06)
(-7.742354 0 59.944044)
(-7.7331953 0 -1.0065409e-06)
(-7.7240579 0 59.66107)
(-7.7149441 0 -9.8819168e-07)
(-7.7058513 0 59.380144)
(-7.6967856 0 -9.6990411e-07)
(-7.687736 0 59.101284)
(-7.6787011 0 -9.5335338e-07)
(-7.6696827 0 58.824031)
(-7.6606889 0 -9.3564717e-07)
(-7.6517158 0 58.548754)
(-7.6427617 0 -9.1871281e-07)
(-7.6338237 0 58.275264)
(-7.6249055 0 -9.0195613e-07)
(-7.6160059 0 58.003545)
(-7.6071271 0 -8.8540433e-07)
(-7.5982613 0 57.733574)
(-7.5894121 0 -8.6953508e-07)
(-7.5805791 0 57.465179)
(-7.5717664 0 -8.5351765e-07)
(-7.5629651 0 57.198441)
(-7.5541791 0 -8.3834251e-07)
(-7.5454049 0 56.933134)
(-7.5366494 0 -8.2298281e-07)
(-7.5279048 0 56.66935)
(-7.5191738 0 -8.0835669e-07)
(-7.5104521 0 56.406891)
(-7.5017466 0 -7.9352987e-07)
(-7.4930538 0 56.145854)
(-7.4843725 0 -7.792171e-07)
(-7.4757013 0 55.886109)
(-7.467045 0 -7.6525924e-07)
(-7.4583893 0 55.62757)
(-7.4497506 0 -7.5120273e-07)
(-7.4411225 0 55.370303)
(-7.4325048 0 -7.3735175e-07)
(-7.4238988 0 55.114273)
(-7.4153046 0 -7.2363181e-07)
(-7.4067181 0 54.859473)
(-7.3981401 0 -7.1049445e-07)
(-7.3895691 0 54.605731)
(-7.3810094 0 -6.9725744e-07)
(-7.3724567 0 54.353118)
(-7.363911 0 -6.8455983e-07)
(-7.3553703 0 54.101472)
(-7.3468386 0 -6.7181412e-07)
(-7.3383135 0 53.850844)
(-7.3297946 0 -6.5944257e-07)
(-7.3212793 0 53.601129)
(-7.31277 0 -6.4721116e-07)
(-7.3042665 0 53.352308)
(-7.2957691 0 -6.3511854e-07)
(-7.2872739 0 53.10436)
(-7.2787827 0 -6.2333255e-07)
(-7.2702957 0 52.857199)
(-7.2618142 0 -6.1154931e-07)
(-7.2533343 0 52.610857)
(-7.244857 0 -6.0015001e-07)
(-7.2363812 0 52.365213)
(-7.2279106 0 -5.8893481e-07)
(-7.2194336 0 52.120221)
(-7.2109548 0 -5.7837425e-07)
(-7.2024745 0 51.875639)
(-7.1939985 0 -5.6731218e-07)
(-7.1855207 0 51.631707)
(-7.1770433 0 -5.5659464e-07)
(-7.1685641 0 51.388311)
(-7.1600866 0 -5.4584018e-07)
(-7.151608 0 51.145497)
(-7.14313 0 -5.352898e-07)
(-7.1346484 0 50.903208)
(-7.1261663 0 -5.2491891e-07)
(-7.1176818 0 50.661394)
(-7.1091976 0 -5.1464013e-07)
(-7.1007075 0 50.420047)
(-7.0922157 0 -5.0459551e-07)
(-7.0837199 0 50.179088)
(-7.0752242 0 -4.9456805e-07)
(-7.0667207 0 49.93854)
(-7.0582147 0 -4.8483017e-07)
(-7.0497019 0 49.698297)
(-7.0411885 0 -4.7507552e-07)
(-7.0326664 0 49.458396)
(-7.0241405 0 -4.6564514e-07)
(-7.0156046 0 49.218707)
(-7.0070676 0 -4.5623759e-07)
(-6.9985176 0 48.979248)
(-6.9899668 0 -4.4694595e-07)
(-6.9814032 0 48.73999)
(-6.9728397 0 -4.3763532e-07)
(-6.9642643 0 48.500977)
(-6.9556887 0 -4.2857879e-07)
(-6.9470932 0 48.262103)
(-6.938503 0 -4.1954578e-07)
(-6.9298909 0 48.023388)
(-6.9212854 0 -4.1075338e-07)
(-6.9126499 0 47.784728)
(-6.9040244 0 -4.0220655e-07)
(-6.8953614 0 47.546009)
(-6.8867073 0 -3.9363967e-07)
(-6.8780286 0 47.307277)
(-6.8693239 0 -3.8618277e-07)
(-6.8606028 0 47.067871)
(-6.8518735 0 -3.7780892e-07)
(-6.8431267 0 46.828383)
(-6.8343717 0 -3.6952706e-07)
(-6.8255979 0 46.588786)
(-6.8168115 0 -3.6148412e-07)
(-6.8080068 0 46.348956)
(-6.799189 0 -3.5342403e-07)
(-6.7903559 0 46.108933)
(-6.7815034 0 -3.4574601e-07)
(-6.7726278 0 45.868488)
(-6.7637334 0 -3.3815658e-07)
(-6.754819 0 45.627579)
(-6.7458866 0 -3.3055704e-07)
(-6.7369311 0 45.386241)
(-6.7279635 0 -3.2290202e-07)
(-6.7189688 0 45.144541)
(-6.7099582 0 -3.154152e-07)
(-6.7009242 0 44.902385)
(-6.6918681 0 -3.0811152e-07)
(-6.6827884 0 44.65966)
(-6.6736882 0 -3.0083314e-07)
(-6.6645609 0 44.416371)
(-6.6554162 0 -2.9359167e-07)
(-6.646241 0 44.172519)
(-6.6370451 0 -2.8650408e-07)
(-6.6278204 0 43.928004)
(-6.6185715 0 -2.795238e-07)
(-6.6092935 0 43.68276)
(-6.5999934 0 -2.7255297e-07)
(-6.5906607 0 43.436808)
(-6.5813028 0 -2.6571121e-07)
(-6.5719144 0 43.190059)
(-6.5625005 0 -2.5894329e-07)
(-6.5530507 0 42.942473)
(-6.543576 0 -2.5228818e-07)
(-6.5340621 0 42.693968)
(-6.5245227 0 -2.457269e-07)
(-6.5149427 0 42.444478)
(-6.5053393 0 -2.3919384e-07)
(-6.4956909 0 42.194)
(-6.4860141 0 -2.3278588e-07)
(-6.4763827 0 41.943533)
(-6.4668855 0 -2.2662995e-07)
(-6.4575036 0 41.699353)
(-6.4482581 0 -2.2064319e-07)
(-6.4391233 0 41.462308)
(-6.4301157 0 -2.1484654e-07)
(-6.421226 0 41.232143)
(-6.4124731 0 -2.0885493e-07)
(-6.4038281 0 41.009014)
(-6.3952987 0 -2.0343066e-07)
(-6.3868821 0 40.792263)
(-6.3785705 0 -1.9841315e-07)
(-6.3703541 0 40.581412)
(-6.3622478 0 -1.9384389e-07)
(-6.3542069 0 40.375945)
(-6.3462324 0 -1.8924106e-07)
(-6.3383302 0 40.17443)
(-6.3305498 0 -1.8601225e-07)
(-6.3228353 0 39.978246)
(-6.315233 0 -1.8192776e-07)
(-6.3076806 0 39.786834)
(-6.3002619 0 -1.7792321e-07)
(-6.2928595 0 39.60008)
(-6.2856297 0 -1.7373421e-07)
(-6.2783876 0 39.418151)
(-6.2712322 0 -1.7095503e-07)
(-6.2641472 0 39.23954)
(-6.257158 0 -1.6697753e-07)
(-6.2502382 0 39.065478)
(-6.2434023 0 -1.6329118e-07)
(-6.2366364 0 38.895633)
(-6.2299522 0 -1.5984977e-07)
(-6.2233213 0 38.729728)
(-6.2167769 0 -1.5648172e-07)
(-6.2102867 0 38.567661)
(-6.203868 0 -1.5342895e-07)
(-6.1975065 0 38.409087)
(-6.1912189 0 -1.5043086e-07)
(-6.1849761 0 38.253929)
(-6.1788145 0 -1.4743722e-07)
(-6.172695 0 38.102164)
(-6.1666457 0 -1.4472813e-07)
(-6.1606397 0 37.953481)
(-6.1547029 0 -1.4197509e-07)
(-6.1488137 0 37.80791)
(-6.1429905 0 -1.3939769e-07)
(-6.1372024 0 37.665253)
(-6.1314851 0 -1.3686117e-07)
(-6.1258024 0 37.525456)
(-6.1201893 0 -1.3441667e-07)
(-6.1146061 0 37.388408)
(-6.1090932 0 -1.3204244e-07)
(-6.1036076 0 37.254026)
(-6.0981925 0 -1.2975477e-07)
(-6.0927996 0 37.122207)
(-6.0874803 0 -1.2760617e-07)
(-6.0821707 0 36.9928)
(-6.0769439 0 -1.2535638e-07)
(-6.0717291 0 36.865894)
(-6.0665861 0 -1.2337365e-07)
(-6.0614527 0 36.741209)
(-6.0563973 0 -1.2135008e-07)
(-6.0513449 0 36.618775)
(-6.0463757 0 -1.1938071e-07)
(-6.0414011 0 36.498527)
(-6.0365156 0 -1.1757853e-07)
(-6.0316074 0 36.380288)
(-6.0268048 0 -1.1573571e-07)
(-6.0219672 0 36.264089)
(-6.0172396 0 -1.1402669e-07)
(-6.0124693 0 36.149787)
(-6.0078215 0 -1.122172e-07)
(-6.0031222 0 36.037476)
(-5.9985931 0 -1.0953451e-07)
(-5.9939989 0 35.928023)
(-5.9895666 0 -1.0781267e-07)
(-5.985019 0 35.820452)
(-5.9806714 0 -1.0627709e-07)
(-5.9761669 0 35.71457)
(-5.9718904 0 -1.0446234e-07)
(-5.967466 0 35.61065)
(-5.9632371 0 -1.0471422e-07)
(-5.9587444 0 -1.0454678e-07)
(-5.9544522 0 35.455501)
(-5.9500855 0 -1.045983e-07)
(-5.945735 0 35.351765)
(-5.9417054 0 -1.0793092e-07)
(-5.9367258 0 35.244713)
(-5.9340403 0 -1.1995957e-07)
(-5.9266605 0 35.125305)
(-5.9281437 0 -1.0084559e-07)
(-5.918012 0 -1.2583011e-07)
)
;
    }
    topWall
    {
        type            calculated;
        value           nonuniform List<vector> 
544
(
(3.9759866e-08 0 -2.9033494e-08)
(3.9744836e-08 0 -8.1098667e-08)
(3.9718116e-08 0 -1.35002e-07)
(3.9680238e-08 0 -1.8707442e-07)
(3.9632856e-08 0 -2.3665257e-07)
(3.9577223e-08 0 -2.8440841e-07)
(3.9514061e-08 0 -3.3077662e-07)
(3.9444031e-08 0 -3.7574736e-07)
(3.9367847e-08 0 -4.192296e-07)
(3.9286213e-08 0 -4.6123484e-07)
(3.919977e-08 0 -5.0183421e-07)
(3.9109098e-08 0 -5.4108922e-07)
(3.9014731e-08 0 -5.7904002e-07)
(3.8917167e-08 0 -6.1572147e-07)
(3.8816869e-08 0 -6.5117214e-07)
(3.8714264e-08 0 -6.8543277e-07)
(3.8609744e-08 0 -7.1854294e-07)
(3.8503672e-08 0 -7.5054042e-07)
(3.8396381e-08 0 -7.8146183e-07)
(3.8288178e-08 0 -8.1134306e-07)
(3.8179344e-08 0 -8.4021919e-07)
(3.8070135e-08 0 -8.681244e-07)
(3.7960787e-08 0 -8.9509183e-07)
(3.7851514e-08 0 -9.2115371e-07)
(3.774251e-08 0 -9.4634129e-07)
(3.7633953e-08 0 -9.7068495e-07)
(3.7526001e-08 0 -9.942141e-07)
(3.7418799e-08 0 -1.0169573e-06)
(3.7312475e-08 0 -1.0389421e-06)
(3.7207146e-08 0 -1.0601954e-06)
(3.7102914e-08 0 -1.080743e-06)
(3.6999869e-08 0 -1.1006099e-06)
(3.6898092e-08 0 -1.1198204e-06)
(3.6797652e-08 0 -1.138398e-06)
(3.6698609e-08 0 -1.1563653e-06)
(3.6601016e-08 0 -1.1737443e-06)
(3.6504915e-08 0 -1.190556e-06)
(3.6410341e-08 0 -1.2068209e-06)
(3.6317325e-08 0 -1.2225589e-06)
(3.6225889e-08 0 -1.237789e-06)
(3.6136049e-08 0 -1.2525296e-06)
(3.6047817e-08 0 -1.2667986e-06)
(3.59612e-08 0 -1.2806132e-06)
(3.5876199e-08 0 -1.29399e-06)
(3.5792813e-08 0 -1.3069451e-06)
(3.5711036e-08 0 -1.319494e-06)
(3.5630857e-08 0 -1.3316517e-06)
(3.5552266e-08 0 -1.3434326e-06)
(3.5475246e-08 0 -1.3548509e-06)
(3.5399781e-08 0 -1.36592e-06)
(3.5325849e-08 0 -1.3766529e-06)
(3.5253428e-08 0 -1.3870624e-06)
(3.5182495e-08 0 -1.3971606e-06)
(3.5113024e-08 0 -1.4069594e-06)
(3.5044987e-08 0 -1.4164702e-06)
(3.4978356e-08 0 -1.4257041e-06)
(3.49131e-08 0 -1.4346717e-06)
(3.4849189e-08 0 -1.4433835e-06)
(3.4786591e-08 0 -1.4518495e-06)
(3.4725274e-08 0 -1.4600793e-06)
(3.4665203e-08 0 -1.4680825e-06)
(3.4606345e-08 0 -1.4758681e-06)
(3.4548666e-08 0 -1.483445e-06)
(3.4492131e-08 0 -1.4908218e-06)
(3.4436702e-08 0 -1.4980065e-06)
(3.4382343e-08 0 -1.5050075e-06)
(3.432902e-08 0 -1.5118329e-06)
(3.4276697e-08 0 -1.51849e-06)
(3.4225336e-08 0 -1.5249865e-06)
(3.4174904e-08 0 -1.5313295e-06)
(3.4125364e-08 0 -1.5375259e-06)
(3.407668e-08 0 -1.5435825e-06)
(3.4028813e-08 0 -1.5495058e-06)
(3.3981727e-08 0 -1.5553027e-06)
(3.3935384e-08 0 -1.5609792e-06)
(3.3889748e-08 0 -1.5665417e-06)
(3.3844782e-08 0 -1.5719962e-06)
(3.3800449e-08 0 -1.5773485e-06)
(3.3756712e-08 0 -1.5826045e-06)
(3.3713535e-08 0 -1.5877698e-06)
(3.367088e-08 0 -1.5928499e-06)
(3.3628712e-08 0 -1.5978502e-06)
(3.3586992e-08 0 -1.6027761e-06)
(3.3545685e-08 0 -1.6076328e-06)
(3.3504752e-08 0 -1.6124254e-06)
(3.3464159e-08 0 -1.6171591e-06)
(3.3423866e-08 0 -1.6218386e-06)
(3.3383837e-08 0 -1.6264691e-06)
(3.3344035e-08 0 -1.6310552e-06)
(3.3304422e-08 0 -1.6356017e-06)
(3.3264961e-08 0 -1.6401134e-06)
(3.3225613e-08 0 -1.644595e-06)
(3.3186342e-08 0 -1.649051e-06)
(3.3147108e-08 0 -1.653486e-06)
(3.3107873e-08 0 -1.6579046e-06)
(3.30686e-08 2.0030996e-38 -1.6623112e-06)
(3.3029239e-08 -2.0030964e-38 -1.6667105e-06)
(3.2989744e-08 0 -1.6711086e-06)
(3.2950089e-08 0 -1.6755098e-06)
(3.291026e-08 0 -1.6799148e-06)
(3.2870251e-08 0 -1.6843235e-06)
(3.2830062e-08 0 -1.6887356e-06)
(3.278969e-08 0 -1.6931512e-06)
(3.2749135e-08 0 -1.6975705e-06)
(3.2708396e-08 0 -1.7019933e-06)
(3.2667471e-08 0 -1.7064199e-06)
(3.2626359e-08 0 -1.7108502e-06)
(3.2585059e-08 0 -1.7152843e-06)
(3.254357e-08 0 -1.7197222e-06)
(3.2501891e-08 0 -1.7241639e-06)
(3.2460021e-08 0 -1.7286095e-06)
(3.2417958e-08 0 -1.7330591e-06)
(3.2375701e-08 0 -1.7375125e-06)
(3.2333249e-08 0 -1.7419701e-06)
(3.2290602e-08 0 -1.7464316e-06)
(3.2247756e-08 0 -1.7508972e-06)
(3.2204713e-08 0 -1.755367e-06)
(3.2161469e-08 0 -1.7598409e-06)
(3.2118024e-08 0 -1.764319e-06)
(3.2074377e-08 0 -1.7688014e-06)
(3.2030527e-08 0 -1.7732881e-06)
(3.1986472e-08 0 -1.777779e-06)
(3.194221e-08 0 -1.7822744e-06)
(3.1897741e-08 0 -1.7867741e-06)
(3.1853063e-08 0 -1.7912783e-06)
(3.1808175e-08 0 -1.795787e-06)
(3.1763076e-08 0 -1.8003001e-06)
(3.1717764e-08 0 -1.8048179e-06)
(3.1672238e-08 0 -1.8093402e-06)
(3.1626496e-08 0 -1.8138672e-06)
(3.1580538e-08 0 -1.8183988e-06)
(3.1534361e-08 0 -1.8229352e-06)
(3.1487965e-08 0 -1.8274759e-06)
(3.1441348e-08 0 -1.8320215e-06)
(3.139451e-08 0 -1.8365723e-06)
(3.134745e-08 0 -1.841128e-06)
(3.1300165e-08 0 -1.8456887e-06)
(3.1252653e-08 0 -1.8502545e-06)
(3.1204911e-08 0 -1.8548251e-06)
(3.115694e-08 0 -1.8594006e-06)
(3.1108736e-08 0 -1.8639811e-06)
(3.10603e-08 0 -1.8685667e-06)
(3.101163e-08 0 -1.8731575e-06)
(3.0962724e-08 0 -1.8777534e-06)
(3.0913581e-08 0 -1.8823546e-06)
(3.0864199e-08 0 -1.886961e-06)
(3.0814577e-08 0 -1.8915727e-06)
(3.0764713e-08 0 -1.8961898e-06)
(3.0714606e-08 0 -1.9008122e-06)
(3.0664254e-08 0 -1.90544e-06)
(3.0613655e-08 0 -1.9100733e-06)
(3.0562809e-08 0 -1.914712e-06)
(3.0511712e-08 0 -1.9193562e-06)
(3.0460364e-08 0 -1.924006e-06)
(3.0408763e-08 0 -1.9286614e-06)
(3.0356907e-08 0 -1.9333224e-06)
(3.0304795e-08 0 -1.9379891e-06)
(3.0252425e-08 0 -1.9426615e-06)
(3.0199795e-08 0 -1.9473396e-06)
(3.0146904e-08 0 -1.9520234e-06)
(3.0093749e-08 0 -1.9567131e-06)
(3.004033e-08 0 -1.9614086e-06)
(2.9986644e-08 0 -1.96611e-06)
(2.9932689e-08 0 -1.9708173e-06)
(2.9878465e-08 0 -1.9755306e-06)
(2.9823968e-08 0 -1.9802498e-06)
(2.9769198e-08 0 -1.984975e-06)
(2.9714152e-08 0 -1.9897063e-06)
(2.9658829e-08 0 -1.9944437e-06)
(2.9603227e-08 0 -1.9991872e-06)
(2.9547344e-08 0 -2.0039369e-06)
(2.9491178e-08 0 -2.0086927e-06)
(2.9434727e-08 0 -2.0134548e-06)
(2.9377989e-08 0 -2.0182231e-06)
(2.9320963e-08 0 -2.0229977e-06)
(2.9263647e-08 0 -2.0277786e-06)
(2.9206038e-08 0 -2.0325659e-06)
(2.9148135e-08 0 -2.0373596e-06)
(2.9089936e-08 0 -2.0421596e-06)
(2.9031438e-08 0 -2.0469662e-06)
(2.897264e-08 0 -2.0517792e-06)
(2.8913541e-08 0 -2.0565987e-06)
(2.8854137e-08 0 -2.0614247e-06)
(2.8794427e-08 0 -2.0662574e-06)
(2.8734408e-08 0 -2.0710966e-06)
(2.8674079e-08 0 -2.0759425e-06)
(2.8613438e-08 0 -2.080795e-06)
(2.8552483e-08 0 -2.0856542e-06)
(2.8491211e-08 0 -2.0905201e-06)
(2.8429621e-08 0 -2.0953928e-06)
(2.836771e-08 0 -2.1002722e-06)
(2.8305476e-08 0 -2.1051584e-06)
(2.8242917e-08 0 -2.1100515e-06)
(2.8180032e-08 0 -2.1149515e-06)
(2.8116817e-08 0 -2.1198583e-06)
(2.805327e-08 0 -2.124772e-06)
(2.798939e-08 0 -2.1296926e-06)
(2.7925174e-08 0 -2.1346203e-06)
(2.786062e-08 0 -2.1395548e-06)
(2.7795726e-08 0 -2.1444964e-06)
(2.7730489e-08 0 -2.1494445e-06)
(2.7664905e-08 0 -2.1543998e-06)
(2.7598971e-08 0 -2.1593631e-06)
(2.7532688e-08 0 -2.1643333e-06)
(2.746605e-08 0 -2.1693106e-06)
(2.7399061e-08 0 -2.1742949e-06)
(2.7331721e-08 0 -2.179286e-06)
(2.7264022e-08 0 -2.1842844e-06)
(2.7195963e-08 0 -2.18929e-06)
(2.712754e-08 0 -2.1943028e-06)
(2.7058752e-08 0 -2.1993228e-06)
(2.6989596e-08 0 -2.2043502e-06)
(2.6920069e-08 0 -2.2093848e-06)
(2.6850169e-08 0 -2.2144267e-06)
(2.6779894e-08 0 -2.2194759e-06)
(2.6709241e-08 0 -2.2245325e-06)
(2.6638207e-08 0 -2.2295963e-06)
(2.6566791e-08 0 -2.2346675e-06)
(2.6494989e-08 0 -2.2397461e-06)
(2.64228e-08 0 -2.244832e-06)
(2.635022e-08 0 -2.2499253e-06)
(2.6277248e-08 0 -2.255026e-06)
(2.6203881e-08 0 -2.2601341e-06)
(2.6130116e-08 0 -2.2652496e-06)
(2.605595e-08 0 -2.2703725e-06)
(2.5981381e-08 0 -2.2755028e-06)
(2.5906407e-08 0 -2.2806405e-06)
(2.5831025e-08 0 -2.2857857e-06)
(2.5755232e-08 0 -2.2909383e-06)
(2.5679026e-08 0 -2.2960983e-06)
(2.5602404e-08 0 -2.3012658e-06)
(2.5525363e-08 0 -2.3064407e-06)
(2.5447901e-08 0 -2.311623e-06)
(2.5370016e-08 0 -2.3168128e-06)
(2.5291703e-08 0 -2.32201e-06)
(2.5212962e-08 0 -2.3272146e-06)
(2.5133789e-08 0 -2.3324267e-06)
(2.5054182e-08 0 -2.3376461e-06)
(2.4974137e-08 0 -2.342873e-06)
(2.4893653e-08 0 -2.3481073e-06)
(2.4812725e-08 0 -2.3533489e-06)
(2.4731353e-08 0 -2.3585979e-06)
(2.4649533e-08 0 -2.3638543e-06)
(2.4567262e-08 0 -2.369118e-06)
(2.4484537e-08 0 -2.3743891e-06)
(2.4401357e-08 0 -2.3796675e-06)
(2.4317717e-08 0 -2.3849531e-06)
(2.4233616e-08 0 -2.3902461e-06)
(2.414905e-08 0 -2.3955463e-06)
(2.4064018e-08 0 -2.4008538e-06)
(2.3978515e-08 0 -2.4061684e-06)
(2.389254e-08 0 -2.4114903e-06)
(2.3806089e-08 0 -2.4168192e-06)
(2.371916e-08 0 -2.4221554e-06)
(2.363175e-08 0 -2.4274985e-06)
(2.3543857e-08 0 -2.4328488e-06)
(2.3455476e-08 0 -2.4382061e-06)
(2.3366607e-08 0 -2.4435704e-06)
(2.3277245e-08 0 -2.4489416e-06)
(2.3187389e-08 0 -2.4543197e-06)
(2.3097035e-08 0 -2.4597047e-06)
(2.3006181e-08 0 -2.4650965e-06)
(2.2914823e-08 0 -2.470495e-06)
(2.2822961e-08 0 -2.4759003e-06)
(2.2730588e-08 0 -2.4813123e-06)
(2.2637706e-08 0 -2.4867309e-06)
(2.2544308e-08 0 -2.4921559e-06)
(2.2450394e-08 0 -2.4975876e-06)
(2.235596e-08 0 -2.5030247e-06)
(2.2261e-08 0 -2.5084689e-06)
(2.2165522e-08 0 -2.5139209e-06)
(2.2069522e-08 0 -2.5193786e-06)
(2.1972993e-08 0 -2.5248424e-06)
(2.1875936e-08 0 -2.5303116e-06)
(2.1778338e-08 0 -2.5357861e-06)
(2.1680201e-08 0 -2.5412672e-06)
(2.1581523e-08 0 -2.546754e-06)
(2.1482302e-08 0 -2.5522467e-06)
(2.1382534e-08 0 -2.5577451e-06)
(2.1282219e-08 0 -2.5632492e-06)
(2.1181352e-08 0 -2.5687587e-06)
(2.1079933e-08 0 -2.5742738e-06)
(2.0977958e-08 0 -2.579794e-06)
(2.0875426e-08 0 -2.5853195e-06)
(2.0772333e-08 0 -2.5908501e-06)
(2.0668678e-08 0 -2.5963857e-06)
(2.0564458e-08 0 -2.6019261e-06)
(2.0459671e-08 0 -2.6074713e-06)
(2.0354314e-08 0 -2.613021e-06)
(2.0248386e-08 0 -2.6185753e-06)
(2.0141884e-08 0 -2.6241339e-06)
(2.0034807e-08 0 -2.6296969e-06)
(1.9927151e-08 0 -2.6352638e-06)
(1.9818915e-08 0 -2.6408348e-06)
(1.9710097e-08 0 -2.6464095e-06)
(1.9600695e-08 0 -2.6519879e-06)
(1.9490707e-08 0 -2.6575698e-06)
(1.9380132e-08 0 -2.663155e-06)
(1.9268967e-08 0 -2.6687434e-06)
(1.9157211e-08 0 -2.6743349e-06)
(1.9044862e-08 0 -2.6799291e-06)
(1.8931919e-08 0 -2.6855261e-06)
(1.8818379e-08 0 -2.6911255e-06)
(1.8704243e-08 0 -2.6967272e-06)
(1.8589506e-08 0 -2.702331e-06)
(1.8474171e-08 0 -2.7079367e-06)
(1.8358233e-08 0 -2.7135441e-06)
(1.8241693e-08 0 -2.719153e-06)
(1.8124549e-08 0 -2.7247631e-06)
(1.8006801e-08 0 -2.7303744e-06)
(1.7888446e-08 0 -2.7359864e-06)
(1.7769486e-08 0 -2.7415991e-06)
(1.7649918e-08 0 -2.7472121e-06)
(1.7529742e-08 0 -2.7528252e-06)
(1.7408958e-08 0 -2.7584382e-06)
(1.7287565e-08 0 -2.7640508e-06)
(1.7165563e-08 0 -2.7696627e-06)
(1.7042952e-08 0 -2.7752738e-06)
(1.691973e-08 0 -2.7808835e-06)
(1.67959e-08 0 -2.7864919e-06)
(1.6671461e-08 0 -2.7920984e-06)
(1.6546412e-08 0 -2.797703e-06)
(1.6420755e-08 0 -2.803305e-06)
(1.629449e-08 0 -2.8089045e-06)
(1.6167617e-08 0 -2.8145008e-06)
(1.6040138e-08 0 -2.8200939e-06)
(1.5912053e-08 0 -2.8256833e-06)
(1.5783364e-08 0 -2.8312687e-06)
(1.5654071e-08 0 -2.8368497e-06)
(1.5524176e-08 0 -2.842426e-06)
(1.5393681e-08 0 -2.8479971e-06)
(1.5262588e-08 0 -2.8535629e-06)
(1.5130897e-08 0 -2.8591227e-06)
(1.4998612e-08 0 -2.8646763e-06)
(1.4865734e-08 0 -2.8702232e-06)
(1.4732266e-08 0 -2.875763e-06)
(1.4598209e-08 0 -2.881294e-06)
(1.4463547e-08 0 -2.8868175e-06)
(1.432831e-08 0 -2.8923343e-06)
(1.4192502e-08 0 -2.8978419e-06)
(1.4056114e-08 0 -2.9033403e-06)
(1.3919174e-08 0 -2.9088291e-06)
(1.3781672e-08 0 -2.9143069e-06)
(1.3643614e-08 0 -2.9197742e-06)
(1.3504998e-08 0 -2.9252299e-06)
(1.3365831e-08 0 -2.930674e-06)
(1.3226116e-08 0 -2.9361056e-06)
(1.308586e-08 0 -2.9415247e-06)
(1.2945067e-08 0 -2.9469302e-06)
(1.2803744e-08 0 -2.9523219e-06)
(1.2661896e-08 0 -2.957699e-06)
(1.2519531e-08 0 -2.9630611e-06)
(1.2376654e-08 0 -2.9684074e-06)
(1.2233275e-08 0 -2.9737375e-06)
(1.2089398e-08 0 -2.9790505e-06)
(1.1945034e-08 0 -2.9843462e-06)
(1.1800189e-08 0 -2.9896234e-06)
(1.1654873e-08 0 -2.9948819e-06)
(1.1509093e-08 0 -3.0001206e-06)
(1.136286e-08 0 -3.0053393e-06)
(1.1216181e-08 0 -3.0105368e-06)
(1.1069069e-08 0 -3.0157129e-06)
(1.0921531e-08 0 -3.0208663e-06)
(1.0773581e-08 0 -3.0259968e-06)
(1.0625228e-08 0 -3.0311032e-06)
(1.0476484e-08 0 -3.036185e-06)
(1.032736e-08 0 -3.0412412e-06)
(1.017787e-08 0 -3.0462712e-06)
(1.0028025e-08 0 -3.0512739e-06)
(9.8778408e-09 0 -3.0562489e-06)
(9.7273283e-09 0 -3.0611948e-06)
(9.5765036e-09 0 -3.0661113e-06)
(9.4253798e-09 0 -3.070997e-06)
(9.2739734e-09 0 -3.0758514e-06)
(9.1222987e-09 0 -3.0806732e-06)
(8.9703731e-09 0 -3.0854618e-06)
(8.8182118e-09 0 -3.090216e-06)
(8.6658334e-09 0 -3.0949351e-06)
(8.513254e-09 0 -3.0996178e-06)
(8.3604933e-09 0 -3.1042634e-06)
(8.2075686e-09 0 -3.1088706e-06)
(8.0545005e-09 0 -3.1134386e-06)
(7.9013075e-09 0 -3.1179661e-06)
(7.7480115e-09 0 -3.1224523e-06)
(7.5946321e-09 0 -3.1268958e-06)
(7.4411921e-09 0 -3.1312959e-06)
(7.2877125e-09 0 -3.1356509e-06)
(7.1342174e-09 0 -3.1399603e-06)
(6.9807289e-09 0 -3.1442223e-06)
(6.8272724e-09 0 -3.1484363e-06)
(6.6738711e-09 0 -3.1526006e-06)
(6.5205518e-09 0 -3.1567145e-06)
(6.3673389e-09 0 -3.1607761e-06)
(6.2142605e-09 0 -3.1647849e-06)
(6.0613425e-09 0 -3.1687389e-06)
(5.9086141e-09 0 -3.1726375e-06)
(5.7561025e-09 0 -3.1764787e-06)
(5.6038383e-09 0 -3.1802619e-06)
(5.45185e-09 0 -3.183985e-06)
(5.3001695e-09 0 -3.1876473e-06)
(5.1488267e-09 0 -3.1912468e-06)
(4.9978545e-09 0 -3.1947828e-06)
(4.8472847e-09 0 -3.1982531e-06)
(4.6971498e-09 0 -3.2016571e-06)
(4.5474815e-09 0 -3.2049917e-06)
(4.3982638e-09 0 -3.2082566e-06)
(4.2495813e-09 0 -3.2114511e-06)
(4.1014827e-09 0 -3.2145734e-06)
(3.9539778e-09 0 -3.2176213e-06)
(3.8071679e-09 0 -3.2205947e-06)
(3.6610729e-09 0 -3.2234901e-06)
(3.5157121e-09 0 -3.2263067e-06)
(3.3711187e-09 0 -3.2290423e-06)
(3.2273353e-09 0 -3.2316965e-06)
(3.0844002e-09 0 -3.2342667e-06)
(2.9423546e-09 0 -3.2367523e-06)
(2.8012398e-09 0 -3.2391506e-06)
(2.6610999e-09 0 -3.2414611e-06)
(2.5219782e-09 0 -3.243681e-06)
(2.3839202e-09 0 -3.2458098e-06)
(2.2469702e-09 0 -3.2478449e-06)
(2.1111749e-09 0 -3.2497854e-06)
(1.97658e-09 0 -3.2516289e-06)
(1.8432327e-09 0 -3.2533746e-06)
(1.71118e-09 0 -3.2550198e-06)
(1.5804702e-09 0 -3.2565639e-06)
(1.4511512e-09 0 -3.2580043e-06)
(1.3232724e-09 0 -3.2593401e-06)
(1.1968829e-09 0 -3.2605689e-06)
(1.0720328e-09 0 -3.2616899e-06)
(9.4877222e-10 0 -3.2627006e-06)
(8.2715228e-10 0 -3.2636001e-06)
(7.0722394e-10 0 -3.264386e-06)
(5.890391e-10 0 -3.2650576e-06)
(4.7264959e-10 0 -3.2656124e-06)
(3.5810798e-10 0 -3.2660496e-06)
(2.4546685e-10 0 -3.2663669e-06)
(1.3477932e-10 0 -3.2665636e-06)
(2.6098621e-11 0 -3.2666373e-06)
(-8.0521697e-11 0 -3.2665874e-06)
(-1.8502785e-10 0 -3.2664115e-06)
(-2.8736592e-10 0 -3.2661094e-06)
(-3.8748164e-10 0 -3.2656784e-06)
(-4.8532081e-10 0 -3.2651184e-06)
(-5.8082881e-10 0 -3.2644271e-06)
(-6.7395111e-10 0 -3.2636043e-06)
(-7.64633e-10 0 -3.2626477e-06)
(-8.5281891e-10 0 -3.2615574e-06)
(-9.3845767e-10 0 -3.2603313e-06)
(-1.0214771e-09 0 -3.2589695e-06)
(-1.1019e-09 0 -3.2574703e-06)
(-1.1793752e-09 0 -3.2558344e-06)
(-1.2533328e-09 0 -3.254075e-06)
(-1.3235526e-09 0 -3.2522117e-06)
(-1.3899785e-09 0 -3.250251e-06)
(-1.4526819e-09 0 -3.2481994e-06)
(-1.5117651e-09 0 -3.2460606e-06)
(-1.5673323e-09 0 -3.2438402e-06)
(-1.6194883e-09 0 -3.2415427e-06)
(-1.6683374e-09 0 -3.2391735e-06)
(-1.713981e-09 0 -3.2367368e-06)
(-1.7565174e-09 0 -3.2342375e-06)
(-1.7960418e-09 0 -3.2316795e-06)
(-1.8326467e-09 0 -3.2290676e-06)
(-1.8664217e-09 0 -3.2264054e-06)
(-1.8974539e-09 0 -3.2236972e-06)
(-1.9258272e-09 0 -3.2209466e-06)
(-1.9516235e-09 0 -3.2181577e-06)
(-1.9749214e-09 0 -3.2153337e-06)
(-1.9957982e-09 0 -3.2124785e-06)
(-2.0143265e-09 0 -3.2095953e-06)
(-2.0305853e-09 0 -3.2066874e-06)
(-2.0446398e-09 0 -3.2037574e-06)
(-2.0566878e-09 0 -3.2008089e-06)
(-2.0665646e-09 0 -3.1978459e-06)
(-2.0744052e-09 0 -3.1948704e-06)
(-2.0803409e-09 0 -3.1918853e-06)
(-2.0842685e-09 0 -3.1888929e-06)
(-2.0864047e-09 0 -3.1858962e-06)
(-2.086761e-09 0 -3.1828977e-06)
(-2.0853974e-09 0 -3.1799005e-06)
(-2.0823604e-09 0 -3.1769062e-06)
(-2.0776991e-09 0 -3.173918e-06)
(-2.0714585e-09 0 -3.1709373e-06)
(-2.0636832e-09 0 -3.1679673e-06)
(-2.0544148e-09 0 -3.165009e-06)
(-2.0436955e-09 0 -3.1620658e-06)
(-2.0315647e-09 0 -3.1591384e-06)
(-2.0180626e-09 0 -3.1562302e-06)
(-2.0032263e-09 0 -3.1533416e-06)
(-1.9870938e-09 0 -3.1504761e-06)
(-1.9696997e-09 0 -3.1476339e-06)
(-1.9510796e-09 0 -3.1448184e-06)