/*--------------------------------*- C++ -*----------------------------------*\
| =========                 |                                                 |
| \\      /  F ield         | OpenFOAM: The Open Source CFD Toolbox           |
|  \\    /   O peration     | Version:  2112                                  |
|   \\  /    A nd           | Website:  www.openfoam.com                      |
|    \\/     M anipulation  |                                                 |
\*---------------------------------------------------------------------------*/
FoamFile
{
    version     2.0;
    format      ascii;
    arch        "LSB;label=32;scalar=64";
    class       volScalarField;
    location    "5000";
    object      yPlus;
}
// * * * * * * * * * * * * * * * * * * * * * * * * * * * * * * * * * * * * * //

dimensions      [0 0 0 0 0 0 0];

internalField   uniform 0;

boundaryField
{
    frontAndBack
    {
        type            empty;
    }
    frontAndBack
    {
        type            empty;
    }
    inlet
    {
        type            calculated;
        value           uniform 0;
    }
    outlet
    {
        type            calculated;
        value           uniform 0;
    }
    symmetry
    {
        type            symmetryPlane;
    }
    bottomWall
    {
        type            calculated;
        value           nonuniform List<scalar> 
448
(
0.12674806
0.078953448
0.067242518
0.061736403
0.058128998
0.05546254
0.053419346
0.051958169
0.051268872
0.051799873
0.055001361
0.058593449
0.060929984
0.062192376
0.062858336
0.063196648
0.063331235
0.063321723
0.063223889
0.063070774
0.062881105
0.062672832
0.062456168
0.062237142
0.062019397
0.061804879
0.061594946
0.061390503
0.061191927
0.060999407
0.06081288
0.060632287
0.060457223
0.060287584
0.060123238
0.059964003
0.059809616
0.059659855
0.059514474
0.059373276
0.05923608
0.059102578
0.058972513
0.058845831
0.058722429
0.058602112
0.058484754
0.05837025
0.058258248
0.058148418
0.058040521
0.057934553
0.057830436
0.057728232
0.057627779
0.057529112
0.057432193
0.057337009
0.057243507
0.057151647
0.057061341
0.056972591
0.056885325
0.056799523
0.056715073
0.056631992
0.056550221
0.056469752
0.056390513
0.056312492
0.056235624
0.056159874
0.056085129
0.056011433
0.055938766
0.055867132
0.055796466
0.055726764
0.055657989
0.055590121
0.055523136
0.055457004
0.055391673
0.055327169
0.055263425
0.05520048
0.055138273
0.055076799
0.055016043
0.054955978
0.054896593
0.054837877
0.054779786
0.054722347
0.054665519
0.05460928
0.054553581
0.054498428
0.054443826
0.054389786
0.054336258
0.054283266
0.054230788
0.054178799
0.0541273
0.054076294
0.054025722
0.053975647
0.053925983
0.053876722
0.0538279
0.053779526
0.053731564
0.053683999
0.053636846
0.053590068
0.053543656
0.053497637
0.053451971
0.053406647
0.053361691
0.05331708
0.053272786
0.053228829
0.053185203
0.053141887
0.053098867
0.053056171
0.05301373
0.052971553
0.052929666
0.052888073
0.052846747
0.052805679
0.052764893
0.052724377
0.052684097
0.052644076
0.052604312
0.052564785
0.052525486
0.052486434
0.052447613
0.052409013
0.052370627
0.05233247
0.052294532
0.052256796
0.052219257
0.052181937
0.052144817
0.05210788
0.052071137
0.052034591
0.051998234
0.051962051
0.05192604
0.05189022
0.05185457
0.051819086
0.051783765
0.051748616
0.051713633
0.051678798
0.051644117
0.051609599
0.051575236
0.051541006
0.051506924
0.051472961
0.051439134
0.051405422
0.051371848
0.051338417
0.051305108
0.051271966
0.051238827
0.051205837
0.051173014
0.051140334
0.051107765
0.05107532
0.051042996
0.05101078
0.050978667
0.050946664
0.050914772
0.05088299
0.050851303
0.050819713
0.050788226
0.050756845
0.050725554
0.050694351
0.050663243
0.050632234
0.050601306
0.050570466
0.050539704
0.050509037
0.050478454
0.050447941
0.050417507
0.050387154
0.050356884
0.050326686
0.050296551
0.050266493
0.050236506
0.050206597
0.050176742
0.050146953
0.050117229
0.050087578
0.050057978
0.050028437
0.049998947
0.049969527
0.049940142
0.049910788
0.04988147
0.049852215
0.04982301
0.049793849
0.049764725
0.049735647
0.049706614
0.049677631
0.049648674
0.049619754
0.049590871
0.049562037
0.049533224
0.049504443
0.049475685
0.049446972
0.049418277
0.049389611
0.049360959
0.049332342
0.049303752
0.049275182
0.049246629
0.049218109
0.049189575
0.04916108
0.049132602
0.049104144
0.049075707
0.049047293
0.049018888
0.048990494
0.048962107
0.048933741
0.048905382
0.04887703
0.048848678
0.048820339
0.048792006
0.048763677
0.048735343
0.048707013
0.048678686
0.048650363
0.04862203
0.048593694
0.048565356
0.04853702
0.048508672
0.048480317
0.04845195
0.048423584
0.04839518
0.048366753
0.048338304
0.048309853
0.048281379
0.04825289
0.048224377
0.048195854
0.04816731
0.048138751
0.048110163
0.048081557
0.048052925
0.048024277
0.047995592
0.047966884
0.047938146
0.04790939
0.047880591
0.047851767
0.047822901
0.047794017
0.047765085
0.047736122
0.047707108
0.047678073
0.047648976
0.047619858
0.047590679
0.047561483
0.047532227
0.047502953
0.047473593
0.047444233
0.04741478
0.047385331
0.047355761
0.047326207
0.047296506
0.047266817
0.047237024
0.047207124
0.047177148
0.047147125
0.047117022
0.047086872
0.047056638
0.047026341
0.046995961
0.046965516
0.046934999
0.046904395
0.046873691
0.046842901
0.046812022
0.04678106
0.046749998
0.046718873
0.046687633
0.046656317
0.046624898
0.046593381
0.046561761
0.046530048
0.046498218
0.046466306
0.046434266
0.046402131
0.046369873
0.046337508
0.046305018
0.046272428
0.046239701
0.046206862
0.046173893
0.04614081
0.046107578
0.046074234
0.046040727
0.046007106
0.045973317
0.045939421
0.045905341
0.045871135
0.045837064
0.045803444
0.045770206
0.045737429
0.045705021
0.045673042
0.045641459
0.045610341
0.045579586
0.045549222
0.045519239
0.045489611
0.045460303
0.04543137
0.045402652
0.045374153
0.045345895
0.045318054
0.045290433
0.045263198
0.045236124
0.045209514
0.045182948
0.045156985
0.045130963
0.045105238
0.045079752
0.045054596
0.045029677
0.045005045
0.044980653
0.044956542
0.044932611
0.044908979
0.044885531
0.044862329
0.044839322
0.044816571
0.04479397
0.044771652
0.044749476
0.044727543
0.044705756
0.04468421
0.044662827
0.044641673
0.044620637
0.044599848
0.044579176
0.044558747
0.044538418
0.044518335
0.044498344
0.0444786
0.044458928
0.044439517
0.044420132
0.044401041
0.044381986
0.044363186
0.044344412
0.044325916
0.044307423
0.044289228
0.044271005
0.044253101
0.044235106
0.044217492
0.044199742
0.044182389
0.044164872
0.044147799
0.044130529
0.044113879
0.044096983
0.044080676
0.044063938
0.044047931
0.04403134
0.044015583
0.043999275
0.043983682
0.04396711
0.043951272
0.043935153
0.043919088
0.043904203
0.043885802
0.043875875
0.043848584
0.04385407
0.043816579
)
;
    }
    topWall
    {
        type            calculated;
        value           nonuniform List<scalar> 
544
(
0.12756097
0.21977044
0.28161838
0.33064377
0.37198522
0.40801666
0.44007356
0.46899889
0.49536722
0.51959231
0.54198477
0.56278541
0.58218584
0.60034185
0.61738234
0.6334156
0.64853379
0.66281623
0.67633182
0.68914099
0.70129705
0.71284744
0.72383455
0.73429652
0.74426779
0.75377963
0.7628605
0.77153645
0.77983136
0.78776722
0.7953643
0.80264136
0.80961578
0.81630374
0.82272027
0.82887942
0.83479431
0.84047721
0.84593965
0.85119243
0.85624571
0.86110907
0.86579152
0.87030159
0.8746473
0.87883626
0.88287568
0.88677239
0.89053285
0.89416321
0.89766932
0.90105673
0.90433073
0.90749636
0.91055843
0.91352152
0.91639
0.91916808
0.92185974
0.92446883
0.926999
0.92945379
0.93183656
0.93415056
0.9363989
0.93858457
0.94071046
0.94277933
0.94479386
0.94675662
0.94867011
0.95053673
0.95235879
0.95413855
0.95587817
0.95757978
0.9592454
0.96087704
0.96247661
0.96404599
0.96558699
0.96710142
0.96859098
0.97005738
0.97150226
0.97292724
0.97433391
0.97572381
0.97709845
0.97845934
0.97980793
0.98114567
0.98247398
0.98379425
0.98510786
0.98641619
0.98772056
0.98902294
0.99032462
0.9916256
0.9929259
0.99422555
0.99552454
0.99682291
0.99812065
0.99941779
1.0007143
1.0020103
1.0033057
1.0046006
1.0058949
1.0071887
1.008482
1.0097748
1.0110671
1.0123589
1.0136503
1.0149413
1.0162318
1.0175219
1.0188116
1.0201009
1.0213898
1.0226784
1.0239666
1.0252545
1.0265421
1.0278293
1.0291162
1.0304029
1.0316893
1.0329754
1.0342612
1.0355468
1.0368322
1.0381174
1.0394023
1.0406871
1.0419717
1.0432561
1.0445403
1.0458245
1.0471084
1.0483923
1.049676
1.0509596
1.0522431
1.0535266
1.0548099
1.0560932
1.0573765
1.0586597
1.0599429
1.0612261
1.0625092
1.0637924
1.0650756
1.0663588
1.067642
1.0689253
1.0702086
1.0714919
1.0727754
1.0740589
1.0753425
1.0766262
1.07791
1.0791939
1.080478
1.0817622
1.0830465
1.084331
1.0856156
1.0869004
1.0881854
1.0894705
1.0907559
1.0920414
1.0933272
1.0946132
1.0958994
1.0971858
1.0984724
1.0997594
1.1010465
1.1023339
1.1036216
1.1049096
1.1061978
1.1074863
1.1087751
1.1100643
1.1113537
1.1126434
1.1139334
1.1152238
1.1165145
1.1178055
1.1190969
1.1203886
1.1216807
1.1229731
1.1242659
1.125559
1.1268525
1.1281464
1.1294406
1.1307352
1.1320302
1.1333256
1.1346214
1.1359176
1.1372142
1.1385112
1.1398085
1.1411063
1.1424045
1.1437031
1.1450021
1.1463015
1.1476013
1.1489015
1.1502022
1.1515033
1.1528047
1.1541066
1.1554089
1.1567117
1.1580148
1.1593184
1.1606223
1.1619267
1.1632315
1.1645367
1.1658423
1.1671484
1.1684548
1.1697616
1.1710688
1.1723764
1.1736844
1.1749928
1.1763015
1.1776106
1.1789201
1.18023
1.1815402
1.1828508
1.1841617
1.185473
1.1867846
1.1880965
1.1894087
1.1907213
1.1920341
1.1933472
1.1946606
1.1959743
1.1972883
1.1986025
1.1999169
1.2012315
1.2025464
1.2038615
1.2051767
1.2064922
1.2078078
1.2091235
1.2104394
1.2117554
1.2130714
1.2143876
1.2157038
1.2170201
1.2183364
1.2196527
1.220969
1.2222853
1.2236015
1.2249177
1.2262337
1.2275496
1.2288654
1.2301811
1.2314965
1.2328117
1.2341267
1.2354414
1.2367558
1.2380698
1.2393835
1.2406969
1.2420098
1.2433223
1.2446342
1.2459457
1.2472566
1.2485669
1.2498766
1.2511856
1.252494
1.2538016
1.2551084
1.2564144
1.2577195
1.2590238
1.260327
1.2616293
1.2629306
1.2642308
1.2655298
1.2668276
1.2681242
1.2694195
1.2707134
1.272006
1.2732971
1.2745867
1.2758747
1.2771611
1.2784458
1.2797287
1.2810098
1.2822891
1.2835663
1.2848416
1.2861147
1.2873857
1.2886544
1.2899209
1.2911849
1.2924465
1.2937055
1.2949619
1.2962156
1.2974665
1.2987145
1.2999595
1.3012014
1.3024402
1.3036757
1.3049079
1.3061366
1.3073618
1.3085833
1.3098011
1.3110149
1.3122249
1.3134307
1.3146323
1.3158296
1.3170225
1.3182108
1.3193944
1.3205732
1.3217471
1.3229159
1.3240796
1.3252378
1.3263907
1.3275378
1.3286793
1.3298148
1.3309443
1.3320676
1.3331845
1.3342949
1.3353986
1.3364955
1.3375854
1.338668
1.3397434
1.3408111
1.3418713
1.3429234
1.3439676
1.3450034
1.3460308
1.3470496
1.3480595
1.3490603
1.3500519
1.351034
1.3520065
1.352969
1.3539215
1.3548636
1.3557952
1.3567159
1.3576257
1.3585241
1.3594111
1.3602863
1.3611496
1.3620005
1.362839
1.3636647
1.3644775
1.3652769
1.3660628
1.3668348
1.3675928
1.3683363
1.3690653
1.3697792
1.3704779
1.371161
1.3718284
1.3724795
1.3731143
1.3737322
1.3743332
1.3749167
1.3754827
1.3760305
1.3765601
1.377071
1.3775631
1.3780357
1.3784888
1.3789219
1.3793347
1.3797269
1.3800982
1.3804481
1.3807765
1.3810828
1.3813669
1.3816282
1.3818667
1.3820818
1.3822732
1.3824406
1.3825838
1.3827022
1.3827957
1.3828639
1.3829065
1.382923
1.3829134
1.3828771
1.382814
1.3827237
1.3826061
1.3824606
1.3822872
1.3820855
1.3818555
1.3815966
1.3813089
1.3809919
1.3806457
1.3802734
1.3798792
1.379464
1.3790293
1.3785759
1.3781051
1.3776177
1.3771148
1.3765974
1.3760665
1.3755228
1.3749674
1.3744011
1.3738247
1.373239
1.3726449
1.3720431
1.3714342
1.3708191
1.3701985
1.3695729
1.3689431
1.3683097
1.3676733
1.3670345
1.3663939
1.3657522
1.3651097
1.3644672
1.363825
1.3631838
1.3625439
1.361906
1.3612703
1.3606375
1.3600078
1.359382
1.3587601
1.3581429
1.3575303
1.3569233
1.3563218
1.3557265
1.3551374
1.3545554
1.3539801
1.3534126
1.3528526
1.3523009
1.3517574
1.3512228
1.3506969
1.3501807
1.3496736
1.3491768
1.3486896
1.3482133
1.3477471
1.3472922
1.346848
1.3464155
1.3459941
1.3455849
1.3451873
1.3448023
1.3444291
1.3440691
1.3437212
1.3433868
1.3430649
1.3427569
1.3424616
1.3421806
1.3419126
1.3416591
1.3414188
1.3411933
1.3409813
1.3407843
1.340601
1.3404329
1.3402786
1.3401398
1.3400148
1.3399056
1.3398102
1.3397307
1.3396651
1.3396157
1.3395798
1.3395608
1.3395539
)
;
    }
}


// ************************************************************************* //
