# Wall shear stress
# Time          	patch           	min             	max             
5000            	bottom	(-5.19792234e-02 0.00000000e+00 -7.55414526e-08)	(-5.00672160e-02 0.00000000e+00 1.15491098e-07)
5000            	top	(-5.19794090e-02 0.00000000e+00 -1.15536393e-07)	(-5.00655231e-02 0.00000000e+00 7.57119812e-08)
