# Wall shear stress
# Time          	patch           	min             	max             
5000            	bottom	(-5.19792234e-02 0.00000000e+00 -7.55391129e-08)	(-5.00672161e-02 0.00000000e+00 2.70184488e-03)
5000            	top	(-5.19794090e-02 0.00000000e+00 -2.70186417e-03)	(-5.00655233e-02 0.00000000e+00 7.57094908e-08)
