# Field minima and maxima
# Time          	field           	min             	location(min)   	max             	location(max)   
1               	mag(U)          	0.00000000e+00	(5.00000000e-04 -5.00000000e-01 0.00000000e+00)	6.94097125e+01	(1.50098418e-03 -5.00000000e-01 7.83141302e-04)
2               	mag(U)          	0.00000000e+00	(5.00000000e-04 -5.00000000e-01 0.00000000e+00)	6.94173316e+01	(1.50098418e-03 -5.00000000e-01 6.93175807e-04)
3               	mag(U)          	0.00000000e+00	(5.00000000e-04 -5.00000000e-01 0.00000000e+00)	6.94249229e+01	(-5.00000000e-04 -5.00000000e-01 1.25116310e-06)
