# y+ ()         
# Time          	patch           	min             	max             	average         
