# Wall shear stress
# Time          	patch           	min             	max             
4416            	bottom	(-6.02106246e-02 0.00000000e+00 -4.21851246e-11)	(-4.48193133e-02 0.00000000e+00 3.62491073e-03)
4416            	top	(-6.02106246e-02 0.00000000e+00 -3.62491072e-03)	(-4.48193412e-02 0.00000000e+00 4.21912442e-11)
