/*--------------------------------*- C++ -*----------------------------------*\
| =========                 |                                                 |
| \\      /  F ield         | OpenFOAM: The Open Source CFD Toolbox           |
|  \\    /   O peration     | Version:  2206                                  |
|   \\  /    A nd           | Website:  www.openfoam.com                      |
|    \\/     M anipulation  |                                                 |
\*---------------------------------------------------------------------------*/
FoamFile
{
    version     2.0;
    format      ascii;
    arch        "LSB;label=32;scalar=64";
    class       volScalarField;
    location    "1";
    object      nut;
}
// * * * * * * * * * * * * * * * * * * * * * * * * * * * * * * * * * * * * * //

dimensions      [0 2 -1 0 0 0 0];

internalField   nonuniform List<scalar> 
320
(
2.3257789e-09
5.5907865e-09
7.3919584e-08
6.538921e-07
1.8707813e-06
4.0750509e-06
8.6329791e-06
1.7239296e-05
2.7034804e-05
2.2277391e-05
5.1354371e-06
3.3818338e-07
1.2806658e-07
1.2879858e-07
1.2927297e-07
1.2937654e-07
1.2937654e-07
1.2927297e-07
1.2879858e-07
1.2806656e-07
3.3818165e-07
5.1354134e-06
2.2277293e-05
2.7034684e-05
1.7239219e-05
8.6329398e-06
4.075033e-06
1.8707717e-06
6.5388963e-07
7.3919923e-08
5.590899e-09
2.3257937e-09
2.325457e-09
5.5698081e-09
7.2105426e-08
6.3316745e-07
1.8036515e-06
3.8754146e-06
8.2081139e-06
1.7371235e-05
3.2399535e-05
3.6833404e-05
1.1407118e-05
7.8452951e-07
1.3065201e-07
1.2838179e-07
1.2916927e-07
1.2934388e-07
1.2934388e-07
1.2916927e-07
1.2838179e-07
1.3065199e-07
7.8452608e-07
1.1407065e-05
3.6833233e-05
3.2399387e-05
1.7371156e-05
8.2080764e-06
3.8753975e-06
1.8036422e-06
6.3316506e-07
7.210576e-08
5.569918e-09
2.3254718e-09
2.3253833e-09
5.5648109e-09
7.1671558e-08
6.2745101e-07
1.7826269e-06
3.7996766e-06
7.9627365e-06
1.6850526e-05
3.2929807e-05
4.3685701e-05
1.7534456e-05
1.3738139e-06
1.3558587e-07
1.2809678e-07
1.2909671e-07
1.2932106e-07
1.2932106e-07
1.2909671e-07
1.2809678e-07
1.3558601e-07
1.3738199e-06
1.7534431e-05
4.3685543e-05
3.2929669e-05
1.6850452e-05
7.9627005e-06
3.7996599e-06
1.7826177e-06
6.2744865e-07
7.1671898e-08
5.5649225e-09
2.3253981e-09
2.3253496e-09
5.5625108e-09
7.1471762e-08
6.2473993e-07
1.7723976e-06
3.7613919e-06
7.8278637e-06
1.6480161e-05
3.2635136e-05
4.6574694e-05
2.2720616e-05
1.9993622e-06
1.4261945e-07
1.279078e-07
1.290461e-07
1.293051e-07
1.293051e-07
1.290461e-07
1.2790779e-07
1.4261832e-07
1.9993385e-06
2.2720522e-05
4.6574503e-05
3.2634986e-05
1.6480079e-05
7.8278245e-06
3.7613742e-06
1.7723882e-06
6.247375e-07
7.1472096e-08
5.5626224e-09
2.3253643e-09
2.3253301e-09
5.5611779e-09
7.1355948e-08
6.2314284e-07
1.7662889e-06
3.7380782e-06
7.7423603e-06
1.6218354e-05
3.2204624e-05
4.7699775e-05
2.6796028e-05
2.6284101e-06
1.5154187e-07
1.277869e-07
1.290108e-07
1.2929395e-07
1.2929395e-07
1.290108e-07
1.277869e-07
1.5154007e-07
2.628367e-06
2.6795892e-05
4.7699493e-05
3.220444e-05
1.6218278e-05
7.7423269e-06
3.7380626e-06
1.7662801e-06
6.2314058e-07
7.1356294e-08
5.5612896e-09
2.3253449e-09
2.3253175e-09
5.5603086e-09
7.1280402e-08
6.2209031e-07
1.7622286e-06
3.7223972e-06
7.6834848e-06
1.6027305e-05
3.1802749e-05
4.8086495e-05
2.9866451e-05
3.2395782e-06
1.6212206e-07
1.2771449e-07
1.289862e-07
1.2928616e-07
1.2928616e-07
1.289862e-07
1.2771451e-07
1.6211957e-07
3.2394937e-06
2.9866213e-05
4.8086267e-05
3.1802648e-05
1.6027258e-05
7.6834589e-06
3.7223833e-06
1.7622202e-06
6.2208815e-07
7.1280755e-08
5.5604203e-09
2.3253322e-09
2.3253087e-09
5.559704e-09
7.1227855e-08
6.2135348e-07
1.7593712e-06
3.7112823e-06
7.6411732e-06
1.588549e-05
3.1468433e-05
4.8169379e-05
3.2119381e-05
3.8157239e-06
1.7408447e-07
1.2767666e-07
1.2896907e-07
1.2928072e-07
1.2928072e-07
1.2896907e-07
1.276767e-07
1.7408201e-07
3.8156054e-06
3.2119105e-05
4.8169241e-05
3.146837e-05
1.5885445e-05
7.6411446e-06
3.7112674e-06
1.7593624e-06
6.2135122e-07
7.1228199e-08
5.5598156e-09
2.3253235e-09
2.3253023e-09
5.5592618e-09
7.1189414e-08
6.2081167e-07
1.7572613e-06
3.7030301e-06
7.6094425e-06
1.5776823e-05
3.119469e-05
4.8114437e-05
3.3739081e-05
4.349253e-06
1.8735327e-07
1.2766461e-07
1.2895708e-07
1.2927691e-07
1.2927691e-07
1.2895708e-07
1.2766469e-07
1.8735263e-07
4.3491338e-06
3.373887e-05
4.8114334e-05
3.1194589e-05
1.5776751e-05
7.6094042e-06
3.7030124e-06
1.7572518e-06
6.2080921e-07
7.1189742e-08
5.5593732e-09
2.325317e-09
2.3252896e-09
5.5584232e-09
7.1117349e-08
6.1990815e-07
1.754082e-06
3.6923528e-06
7.5785579e-06
1.5727226e-05
3.1344752e-05
4.9571391e-05
3.7131014e-05
5.2874126e-06
2.1375288e-07
1.2758851e-07
1.2891808e-07
1.2926454e-07
1.2926454e-07
1.2891808e-07
1.2758865e-07
2.1375714e-07
5.2873333e-06
3.7130937e-05
4.9571241e-05
3.1344567e-05
1.572712e-05
7.5785094e-06
3.6923324e-06
1.7540718e-06
6.1990552e-07
7.1117663e-08
5.5585344e-09
2.3253044e-09
2.3252533e-09
5.5560173e-09
7.0909858e-08
6.1734489e-07
1.7452106e-06
3.6635768e-06
7.503426e-06
1.5680672e-05
3.2407298e-05
5.680661e-05
5.3732246e-05
1.0470282e-05
4.2988999e-07
1.2904543e-07
1.2867281e-07
1.2918388e-07
1.2918388e-07
1.2867281e-07
1.2904604e-07
4.2991872e-07
1.0470339e-05
5.3732283e-05
5.6806304e-05
3.2407033e-05
1.5680547e-05
7.5033743e-06
3.6635559e-06
1.7452003e-06
6.1734212e-07
7.0910122e-08
5.5561136e-09
2.3252678e-09
)
;

boundaryField
{
    frontAndBack
    {
        type            empty;
    }
    frontAndBack
    {
        type            empty;
    }
    inlet
    {
        type            calculated;
        value           uniform 1.2942343e-07;
    }
    outlet
    {
        type            calculated;
        value           nonuniform List<scalar> 
32
(
2.3252533e-09
5.5560173e-09
7.0909858e-08
6.1734489e-07
1.7452106e-06
3.6635768e-06
7.503426e-06
1.5680672e-05
3.2407298e-05
5.680661e-05
5.3732246e-05
1.0470282e-05
4.2988999e-07
1.2904543e-07
1.2867281e-07
1.2918388e-07
1.2918388e-07
1.2867281e-07
1.2904604e-07
4.2991872e-07
1.0470339e-05
5.3732283e-05
5.6806304e-05
3.2407033e-05
1.5680547e-05
7.5033743e-06
3.6635559e-06
1.7452003e-06
6.1734212e-07
7.0910122e-08
5.5561136e-09
2.3252678e-09
)
;
    }
    bottom
    {
        type            nutkWallFunction;
        blending        stepwise;
        value           uniform 0;
    }
    top
    {
        type            nutkWallFunction;
        blending        stepwise;
        value           uniform 0;
    }
}


// ************************************************************************* //
