/*--------------------------------*- C++ -*----------------------------------*\
| =========                 |                                                 |
| \\      /  F ield         | OpenFOAM: The Open Source CFD Toolbox           |
|  \\    /   O peration     | Version:  2206                                  |
|   \\  /    A nd           | Website:  www.openfoam.com                      |
|    \\/     M anipulation  |                                                 |
\*---------------------------------------------------------------------------*/
FoamFile
{
    version     2.0;
    format      ascii;
    arch        "LSB;label=32;scalar=64";
    class       volScalarField;
    location    "1";
    object      nuTilda;
}
// * * * * * * * * * * * * * * * * * * * * * * * * * * * * * * * * * * * * * //

dimensions      [0 2 -1 0 0 0 0];

internalField   nonuniform List<scalar> 
320
(
1.7044239e-07
2.1291246e-07
4.23136e-07
9.3772223e-07
1.9597425e-06
4.0962708e-06
8.6377734e-06
1.72405e-05
2.7035294e-05
2.2278113e-05
5.1489022e-06
6.9646659e-07
4.9836933e-07
4.9925016e-07
4.9981961e-07
4.9994379e-07
4.9994379e-07
4.9981961e-07
4.9925016e-07
4.983693e-07
6.9646518e-07
5.1488786e-06
2.2278014e-05
2.7035174e-05
1.7240424e-05
8.6377342e-06
4.096253e-06
1.9597337e-06
9.3772038e-07
4.2313655e-07
2.1291355e-07
1.7044266e-07
1.7043643e-07
2.1270844e-07
4.2012586e-07
9.2215593e-07
1.8980575e-06
3.8988188e-06
8.213416e-06
1.737242e-05
3.2399876e-05
3.6833668e-05
1.1409867e-05
1.0366096e-06
5.014688e-07
4.9874895e-07
4.9969523e-07
4.9990464e-07
4.9990464e-07
4.9969523e-07
4.9874895e-07
5.0146877e-07
1.036607e-06
1.1409814e-05
3.6833497e-05
3.2399728e-05
1.7372342e-05
8.2133785e-06
3.8988019e-06
1.898049e-06
9.2215414e-07
4.2012642e-07
2.1270951e-07
1.704367e-07
1.7043507e-07
2.1265976e-07
4.1939917e-07
9.1786531e-07
1.8788269e-06
3.8239969e-06
7.9683694e-06
1.6851786e-05
3.2930137e-05
4.3685888e-05
1.753562e-05
1.5151711e-06
5.072962e-07
4.9840572e-07
4.9960817e-07
4.9987728e-07
4.9987728e-07
4.9960817e-07
4.9840572e-07
5.0729637e-07
1.5151762e-06
1.7535595e-05
4.368573e-05
3.2929999e-05
1.6851712e-05
7.9683334e-06
3.8239804e-06
1.8788186e-06
9.1786354e-07
4.1939974e-07
2.1266085e-07
1.7043534e-07
1.7043444e-07
2.1263734e-07
4.1906363e-07
9.158308e-07
1.8694865e-06
3.7861955e-06
7.8336917e-06
1.6481478e-05
3.2635472e-05
4.6574859e-05
2.272131e-05
2.0789973e-06
5.1541822e-07
4.9817791e-07
4.9954742e-07
4.9985815e-07
4.9985815e-07
4.9954742e-07
4.981779e-07
5.1541694e-07
2.0789752e-06
2.2721215e-05
4.6574668e-05
3.2635322e-05
1.6481397e-05
7.8336525e-06
3.786178e-06
1.8694778e-06
9.1582897e-07
4.1906419e-07
2.1263843e-07
1.7043472e-07
1.7043408e-07
2.1262435e-07
4.1886887e-07
9.1463236e-07
1.8639135e-06
3.763183e-06
7.7483173e-06
1.6219714e-05
3.2204969e-05
4.7699933e-05
2.6796527e-05
2.6774238e-06
5.2543589e-07
4.9803209e-07
4.9950505e-07
4.9984478e-07
4.9984478e-07
4.9950505e-07
4.9803208e-07
5.2543389e-07
2.6773821e-06
2.6796391e-05
4.769965e-05
3.2204785e-05
1.6219639e-05
7.7482839e-06
3.7631676e-06
1.8639055e-06
9.1463067e-07
4.1886946e-07
2.1262544e-07
1.7043436e-07
1.7043385e-07
2.1261587e-07
4.1874173e-07
9.138426e-07
1.8602115e-06
3.7477077e-06
7.6895331e-06
1.6028697e-05
3.1803103e-05
4.808665e-05
2.9866852e-05
3.2726579e-06
5.3694544e-07
4.9794471e-07
4.9947552e-07
4.9983543e-07
4.9983543e-07
4.9947552e-07
4.9794473e-07
5.3694278e-07
3.272575e-06
2.9866615e-05
4.8086421e-05
3.1803002e-05
1.6028651e-05
7.6895072e-06
3.747694e-06
1.8602039e-06
9.1384099e-07
4.1874232e-07
2.1261696e-07
1.7043412e-07
1.7043369e-07
2.1260998e-07
4.1865324e-07
9.1328974e-07
1.8576072e-06
3.7367401e-06
7.6472884e-06
1.5886908e-05
3.1468794e-05
4.8169533e-05
3.2119728e-05
3.8398457e-06
5.4953394e-07
4.9789904e-07
4.9945495e-07
4.9982891e-07
4.9982891e-07
4.9945495e-07
4.978991e-07
5.495314e-07
3.8397287e-06
3.2119452e-05
4.8169395e-05
3.1468731e-05
1.5886862e-05
7.6472598e-06
3.7367253e-06
1.8575992e-06
9.1328805e-07
4.1865382e-07
2.1261106e-07
1.7043396e-07
1.7043357e-07
2.1260566e-07
4.1858848e-07
9.1288322e-07
1.8556848e-06
3.728598e-06
7.6156086e-06
1.577826e-05
3.1195058e-05
4.8114591e-05
3.3739396e-05
4.3679324e-06
5.630379e-07
4.978845e-07
4.9944055e-07
4.9982433e-07
4.9982433e-07
4.9944055e-07
4.978846e-07
5.6303726e-07
4.3678142e-06
3.3739184e-05
4.8114489e-05
3.1194957e-05
1.5778189e-05
7.6155704e-06
3.7285805e-06
1.8556761e-06
9.1288137e-07
4.1858903e-07
2.1260675e-07
1.7043384e-07
1.7043333e-07
2.1259748e-07
4.1846702e-07
9.1220532e-07
1.8527888e-06
3.7180643e-06
7.5847742e-06
1.5728673e-05
3.1345116e-05
4.9571537e-05
3.7131274e-05
5.300123e-06
5.8871035e-07
4.9779262e-07
4.9939372e-07
4.9980951e-07
4.9980951e-07
4.9939372e-07
4.9779279e-07
5.8871438e-07
5.3000442e-06
3.7131197e-05
4.9571386e-05
3.1344931e-05
1.5728567e-05
7.5847258e-06
3.7180442e-06
1.8527795e-06
9.1220334e-07
4.1846755e-07
2.1259857e-07
1.7043361e-07
1.7043266e-07
2.1257402e-07
4.1811689e-07
9.1028222e-07
1.8447136e-06
3.6896812e-06
7.509767e-06
1.5682128e-05
3.2407639e-05
5.6806721e-05
5.3732369e-05
1.0473544e-05
7.6866826e-07
4.9954661e-07
4.9909901e-07
4.9971276e-07
4.9971276e-07
4.9909901e-07
4.9954735e-07
7.6869038e-07
1.0473601e-05
5.3732407e-05
5.6806415e-05
3.2407374e-05
1.5682003e-05
7.5097154e-06
3.6896606e-06
1.8447042e-06
9.1028014e-07
4.1811734e-07
2.1257496e-07
1.7043293e-07
)
;

boundaryField
{
    frontAndBack
    {
        type            empty;
    }
    frontAndBack
    {
        type            empty;
    }
    inlet
    {
        type            fixedValue;
        value           uniform 5e-07;
    }
    outlet
    {
        type            inletOutlet;
        inletValue      uniform 5e-07;
        value           nonuniform List<scalar> 
32
(
1.7043266e-07
2.1257402e-07
4.1811689e-07
9.1028222e-07
1.8447136e-06
3.6896812e-06
7.509767e-06
1.5682128e-05
3.2407639e-05
5.6806721e-05
5.3732369e-05
1.0473544e-05
7.6866826e-07
4.9954661e-07
4.9909901e-07
4.9971276e-07
4.9971276e-07
4.9909901e-07
4.9954735e-07
7.6869038e-07
1.0473601e-05
5.3732407e-05
5.6806415e-05
3.2407374e-05
1.5682003e-05
7.5097154e-06
3.6896606e-06
1.8447042e-06
9.1028014e-07
4.1811734e-07
2.1257496e-07
1.7043293e-07
)
;
    }
    bottom
    {
        type            fixedValue;
        value           uniform 0;
    }
    top
    {
        type            fixedValue;
        value           uniform 0;
    }
}


// ************************************************************************* //
