/*--------------------------------*- C++ -*----------------------------------*\
| =========                 |                                                 |
| \\      /  F ield         | OpenFOAM: The Open Source CFD Toolbox           |
|  \\    /   O peration     | Version:  2206                                  |
|   \\  /    A nd           | Website:  www.openfoam.com                      |
|    \\/     M anipulation  |                                                 |
\*---------------------------------------------------------------------------*/
FoamFile
{
    version     2.0;
    format      ascii;
    arch        "LSB;label=32;scalar=64";
    class       volScalarField;
    location    "1";
    object      p;
}
// * * * * * * * * * * * * * * * * * * * * * * * * * * * * * * * * * * * * * //

dimensions      [0 2 -2 0 0 0 0];

internalField   nonuniform List<scalar> 
320
(
0.071841634
0.07184163
0.071841625
0.071841621
0.071841618
0.071841615
0.071841612
0.071841609
0.071841604
0.071841592
0.071841562
0.071841493
0.071841342
0.071841046
0.071840588
0.071840175
0.071840175
0.071840588
0.071841046
0.071841342
0.071841493
0.071841562
0.071841592
0.071841604
0.071841609
0.071841612
0.071841615
0.071841618
0.071841621
0.071841625
0.07184163
0.071841634
0.063668332
0.063668332
0.063668332
0.063668332
0.063668332
0.063668332
0.063668332
0.063668332
0.063668332
0.063668332
0.063668331
0.063668329
0.063668326
0.063668319
0.063668308
0.063668298
0.063668298
0.063668308
0.063668319
0.063668326
0.063668329
0.063668331
0.063668332
0.063668332
0.063668332
0.063668332
0.063668332
0.063668332
0.063668332
0.063668332
0.063668332
0.063668332
0.058111902
0.058111902
0.058111902
0.058111902
0.058111902
0.058111902
0.058111902
0.058111902
0.058111902
0.058111902
0.058111901
0.0581119
0.058111898
0.058111893
0.058111886
0.05811188
0.05811188
0.058111886
0.058111893
0.058111898
0.0581119
0.058111901
0.058111902
0.058111902
0.058111902
0.058111902
0.058111902
0.058111902
0.058111902
0.058111902
0.058111902
0.058111902
0.051860813
0.051860813
0.051860813
0.051860813
0.051860813
0.051860813
0.051860813
0.051860813
0.051860813
0.051860813
0.051860813
0.051860812
0.05186081
0.051860807
0.051860802
0.051860797
0.051860797
0.051860802
0.051860807
0.05186081
0.051860812
0.051860813
0.051860813
0.051860813
0.051860813
0.051860813
0.051860813
0.051860813
0.051860813
0.051860813
0.051860813
0.051860813
0.045099928
0.045099928
0.045099928
0.045099928
0.045099928
0.045099928
0.045099928
0.045099928
0.045099928
0.045099928
0.045099928
0.045099927
0.045099926
0.045099923
0.045099919
0.045099915
0.045099915
0.045099919
0.045099923
0.045099926
0.045099927
0.045099928
0.045099928
0.045099928
0.045099928
0.045099928
0.045099928
0.045099928
0.045099928
0.045099928
0.045099928
0.045099928
0.037944952
0.037944952
0.037944952
0.037944952
0.037944952
0.037944952
0.037944952
0.037944952
0.037944952
0.037944952
0.037944952
0.037944952
0.037944951
0.037944949
0.037944945
0.037944943
0.037944943
0.037944945
0.037944949
0.037944951
0.037944952
0.037944952
0.037944952
0.037944952
0.037944952
0.037944952
0.037944952
0.037944952
0.037944952
0.037944952
0.037944952
0.037944952
0.030476215
0.030476215
0.030476215
0.030476215
0.030476215
0.030476215
0.030476215
0.030476215
0.030476215
0.030476215
0.030476215
0.030476214
0.030476213
0.030476212
0.030476209
0.030476207
0.030476207
0.030476209
0.030476212
0.030476213
0.030476214
0.030476215
0.030476215
0.030476215
0.030476215
0.030476215
0.030476215
0.030476215
0.030476215
0.030476215
0.030476215
0.030476215
0.022752883
0.022752883
0.022752883
0.022752883
0.022752883
0.022752883
0.022752883
0.022752883
0.022752883
0.022752883
0.022752883
0.022752883
0.022752882
0.02275288
0.022752877
0.022752875
0.022752875
0.022752877
0.02275288
0.022752882
0.022752883
0.022752883
0.022752883
0.022752883
0.022752883
0.022752883
0.022752883
0.022752883
0.022752883
0.022752883
0.022752883
0.022752883
0.014695446
0.014695446
0.014695446
0.014695446
0.014695446
0.014695446
0.014695446
0.014695446
0.014695446
0.014695446
0.014695446
0.014695446
0.014695445
0.014695442
0.014695439
0.014695435
0.014695435
0.014695439
0.014695442
0.014695445
0.014695446
0.014695446
0.014695446
0.014695446
0.014695446
0.014695446
0.014695446
0.014695446
0.014695446
0.014695446
0.014695446
0.014695446
0.0046231229
0.0046231229
0.0046231229
0.0046231229
0.0046231229
0.0046231229
0.0046231229
0.0046231229
0.0046231229
0.0046231228
0.0046231228
0.0046231226
0.0046231223
0.0046231217
0.0046231207
0.0046231198
0.0046231198
0.0046231207
0.0046231217
0.0046231223
0.0046231226
0.0046231228
0.0046231228
0.0046231229
0.0046231229
0.0046231229
0.0046231229
0.0046231229
0.0046231229
0.0046231229
0.0046231229
0.0046231229
)
;

boundaryField
{
    frontAndBack
    {
        type            empty;
    }
    frontAndBack
    {
        type            empty;
    }
    inlet
    {
        type            zeroGradient;
    }
    outlet
    {
        type            fixedValue;
        value           uniform 0;
    }
    bottom
    {
        type            zeroGradient;
    }
    top
    {
        type            zeroGradient;
    }
}


// ************************************************************************* //
