/*--------------------------------*- C++ -*----------------------------------*\
| =========                 |                                                 |
| \\      /  F ield         | OpenFOAM: The Open Source CFD Toolbox           |
|  \\    /   O peration     | Version:  2206                                  |
|   \\  /    A nd           | Website:  www.openfoam.com                      |
|    \\/     M anipulation  |                                                 |
\*---------------------------------------------------------------------------*/
FoamFile
{
    version     2.0;
    format      ascii;
    arch        "LSB;label=32;scalar=64";
    class       surfaceScalarField;
    location    "1";
    object      phi;
}
// * * * * * * * * * * * * * * * * * * * * * * * * * * * * * * * * * * * * * //

dimensions      [0 3 -1 0 0 0 0];

oriented        oriented;

internalField   nonuniform List<scalar> 
598
(
7.5417959e-06
2.3883118e-06
2.2085419e-05
9.169282e-06
5.012424e-05
2.8586806e-05
0.00010413238
8.1210086e-05
0.0002078422
0.00021917155
0.00040493469
0.0005738398
0.00076706526
0.0014782476
0.0013661186
0.0037923285
0.0020893722
0.009743841
0.002452155
0.024521983
0.0024612506
0.058792463
0.0023765926
0.13704761
0.0021819466
0.30880966
0.001773626
0.64670542
0.00103567
1.1684371
1.0797663e-08
1.639757
-0.0010356481
1.639757
-0.0017736038
1.1684371
-0.0021819244
0.64670542
-0.0023765713
0.30880966
-0.0024612308
0.13704761
-0.0024521372
0.058792463
-0.0020893582
0.024521985
-0.0013661101
0.0097438441
-0.00076706081
0.0037923317
-0.00040493267
0.0014782488
-0.00020784118
0.00057384108
-0.00010413208
0.00021917163
-5.0124149e-05
8.121044e-05
-2.2085475e-05
2.8586918e-05
-7.5419877e-06
9.1693097e-06
2.3884123e-06
1.6741808e-10
2.3881444e-06
1.2541966e-09
9.1681951e-06
8.600864e-09
2.8579459e-05
5.8261094e-08
8.1160426e-05
3.8723465e-07
0.00021884258
2.4783403e-06
0.0005717487
1.4757796e-05
0.0014659682
7.5974015e-05
0.0037311123
0.00028412409
0.0095356911
0.00053617754
0.02426993
0.00057974177
0.0587489
0.00056123063
0.13706612
0.00051533717
0.30885556
0.00041894963
0.64680182
0.00024466567
1.1686113
-2.5838744e-09
1.6400017
-0.00024467185
1.6400017
-0.00041895816
1.1686113
-0.00051534763
0.64680182
-0.00056124142
0.30885556
-0.00057975066
0.13706612
-0.00053618302
0.058748901
-0.00028412687
0.024269933
-7.5975237e-05
0.0095356951
-1.4758254e-05
0.0037311157
-2.4785022e-06
0.0014659694
-3.8728922e-07
0.00057174998
-5.8278829e-08
0.00021884266
-8.6065484e-09
8.116078e-05
-1.2555574e-09
2.8579571e-05
-1.6738966e-10
9.1682228e-06
2.3882449e-06
2.4300562e-11
2.38812e-06
1.8428636e-10
9.1680351e-06
1.290914e-09
2.8578352e-05
9.0597041e-09
8.1152658e-05
6.3785137e-08
0.00021878785
4.4881017e-07
0.00057136367
3.1276177e-06
0.0014632894
2.0824162e-05
0.0037134158
0.00011493063
0.0094415844
0.0003205423
0.024064318
0.00037799573
0.058691445
0.00036730295
0.13707681
0.00033723874
0.30888561
0.00027413147
0.64686492
0.00016007387
1.1687254
-1.3096724e-09
1.6401617
-0.00016007504
1.6401617
-0.00027412897
1.1687254
-0.00033723228
0.64686492
-0.00036729432
0.30888561
-0.00037798741
0.13707681
-0.00032053624
0.058691445
-0.00011492767
0.024064321
-2.0823019e-05
0.0094415883
-3.1272102e-06
0.0037134191
-4.4867011e-07
0.0014632906
-6.3740117e-08
0.00057136495
-9.0449248e-09
0.00021878794
-1.2864803e-09
8.1153012e-05
-1.8326318e-10
2.8578464e-05
-2.4328983e-11
9.1680628e-06
2.3882206e-06
9.9333874e-12
2.3881101e-06
7.5374373e-11
9.1679696e-06
5.2796167e-10
2.8577899e-05
3.7052814e-09
8.114948e-05
2.6096131e-08
0.00021876546
1.839071e-07
0.00057120587
1.2919336e-06
0.0014621813
8.913107e-06
0.0037057946
5.5886077e-05
0.0093946115
0.00021201812
0.023908186
0.00027575454
0.058627709
0.00026950345
0.13708307
0.00024746182
0.30890766
0.00020115932
0.64691123
0.0001174661
1.1688091
3.3764991e-10
1.6402792
-0.00011746618
1.6402792
-0.00020116135
1.1688091
-0.00024746596
0.64691123
-0.0002695087
0.30890766
-0.00027575974
0.13708307
-0.00021202103
0.058627709
-5.5886623e-05
0.023908189
-8.91339e-06
0.0093946162
-1.2920864e-06
0.0037057982
-1.8396531e-07
0.0014621826
-2.611705e-08
0.00057120715
-3.7116479e-09
0.00021876555
-5.3012172e-10
8.1149835e-05
-7.5942808e-11
2.8578012e-05
-9.9475983e-12
9.1679974e-06
2.3882106e-06
5.286438e-12
2.3881048e-06
4.0046189e-11
9.1679349e-06
2.8035174e-10
2.8577659e-05
1.969056e-09
8.1147792e-05
1.3867121e-08
0.00021875356
9.7732482e-08
0.000571122
6.8741429e-07
0.0014615916
4.7805806e-06
0.0037017014
3.1347161e-05
0.0093680449
0.00014666163
0.023792872
0.00021156838
0.058562803
0.00020833849
0.1370863
0.0001913146
0.30892468
0.00015551768
0.64694702
9.0816406e-05
1.1688738
8.4569365e-09
1.64037
-9.0799426e-05
1.64037
-0.00015550049
1.1688738
-0.0001912971
0.64694702
-0.00020832068
0.30892468
-0.00021155157
0.1370863
-0.00014665229
0.05856281
-3.1344425e-05
0.023792881
-4.7800459e-06
0.0093680519
-6.8734516e-07
0.0037017056
-9.7727025e-08
0.001461593
-1.386752e-08
0.0005711233
-1.9697382e-09
0.00021875365
-2.806928e-10
8.1148146e-05
-4.0103032e-11
2.8577771e-05
-5.2722271e-12
9.1679626e-06
2.3882053e-06
3.225864e-12
2.3881016e-06
2.4385827e-11
9.1679136e-06
1.7104185e-10
2.8577512e-05
1.2012151e-09
8.1146762e-05
8.457846e-09
0.00021874631
5.9611011e-08
0.00057107085
4.1940257e-07
0.0014612319
2.9260918e-06
0.0036991947
1.959582e-05
0.0093513752
0.00010400095
0.023708467
0.00016687428
0.058499929
0.00016585664
0.13708731
0.00015232359
0.30893822
0.00012382338
0.64697552
7.2310379e-05
1.1689253
1.1951329e-08
1.6404423
-7.2286498e-05
1.6404423
-0.00012379957
1.1689253
-0.00015229979
0.64697552
-0.00016583302
0.30893822
-0.00016685272
0.13708732
-0.00010399212
0.058499949
-1.9595551e-05
0.023708484
-2.9263429e-06
0.0093513827
-4.1945168e-07
0.0036991987
-5.9615559e-08
0.0014612332
-8.4587555e-09
0.00057107214
-1.2007604e-09
0.00021874639
-1.7104185e-10
8.1147116e-05
-2.4414248e-11
2.8577624e-05
-3.225864e-12
9.1679414e-06
2.3882021e-06
2.1190608e-12
2.3880994e-06
1.6201701e-11
9.1678996e-06
1.1334685e-10
2.8577415e-05
7.9649085e-10
8.1146079e-05
5.6088545e-09
0.0002187415
3.9523002e-08
0.00057103693
2.7808957e-07
0.0014609933
1.9430997e-06
0.0036975297
1.3160472e-05
0.0093401579
7.4926778e-05
0.0236467
0.00013390279
0.058440953
0.00013454179
0.13708668
0.00012358401
0.30894917
0.00010045899
0.64699865
5.8660669e-05
1.1689671
-3.6831125e-09
1.640501
-5.8668158e-05
1.640501
-0.00010046679
1.1689671
-0.00012359214
0.64699865
-0.00013454998
0.30894917
-0.0001339104
0.13708668
-7.4934738e-05
0.058440974
-1.316399e-05
0.023646714
-1.9439831e-06
0.0093401628
-2.7825081e-07
0.003697533
-3.9553925e-08
0.0014609945
-5.6152203e-09
0.00057103821
-7.980816e-10
0.00021874158
-1.1380052e-10
8.1146433e-05
-1.6314061e-11
2.8577527e-05
-2.1316282e-12
9.1679273e-06
2.3882e-06
4.8134338e-12
2.3880946e-06
3.6202095e-11
9.1678682e-06
2.5032992e-10
2.85772e-05
1.7209845e-09
8.1144608e-05
1.1726393e-08
0.00021873149
7.8368426e-08
0.00057097029
5.0585186e-07
0.0014605658
3.0717856e-06
0.0036949638
1.6729224e-05
0.0093265004
7.471694e-05
0.023588713
0.00013646281
0.058379208
0.00013826794
0.13708487
0.00012709929
0.30896034
0.00010334089
0.64702241
6.034503e-05
1.1690101
-1.606719e-08
1.6405613
-6.0377138e-05
1.6405613
-0.00010337293
1.1690101
-0.00012713124
0.64702241
-0.00013829959
0.30896034
-0.0001364905
0.13708487
-7.4732627e-05
0.058379216
-1.6733022e-05
0.023588714
-3.0724459e-06
0.0093265022
-5.0594826e-07
0.0036949665
-7.8381163e-08
0.0014605669
-1.1727934e-08
0.00057097155
-1.7212187e-09
0.00021873157
-2.5039519e-10
8.1144962e-05
-3.6209169e-11
2.8577313e-05
-4.8102642e-12
9.1678959e-06
2.3881952e-06
1.2890388e-11
2.3880817e-06
9.6925716e-11
9.1677841e-06
6.6939702e-10
2.8576628e-05
4.5893174e-09
8.1140688e-05
3.1132636e-08
0.00021870495
2.0657263e-07
0.00057079485
1.3163192e-06
0.0014594561
7.7847774e-06
0.0036884954
3.9668474e-05
0.0092946167
0.00014788681
0.023480494
0.00026195909
0.058265135
0.00026838451
0.13707845
0.00024730528
0.30898142
0.00020127486
0.64706844
0.00011758761
1.1690938
-1.7792104e-08
1.640679
-0.00011762321
1.640679
-0.0002013105
1.1690938
-0.00024734097
0.64706844
-0.00026841981
0.30898142
-0.00026198812
0.13707844
-0.00014789907
0.058265127
-3.9670475e-05
0.023480486
-7.7849945e-06
0.0092946168
-1.3163472e-06
0.0036884979
-2.0657717e-07
0.0014594572
-3.113314e-08
0.00057079611
-4.5894239e-09
0.00021870503
-6.695017e-10
8.1141042e-05
-9.6960554e-11
2.857674e-05
-1.2892665e-11
9.1678119e-06
2.3881823e-06
1.8766694e-11
1.411512e-10
9.7528947e-10
6.6929205e-09
4.5477124e-08
3.025137e-07
1.9351867e-06
1.1507113e-05
5.8947215e-05
0.00021676822
0.00038394328
0.00039433034
0.0003631308
0.00029544197
0.00017258077
-1.3716317e-08
-0.00017260821
-0.00029546941
-0.00036315841
-0.00039435739
-0.00038396358
-0.00021677317
-5.8947102e-05
-1.1506914e-05
-1.9351473e-06
-3.025084e-07
-4.5476668e-08
-6.6929715e-09
-9.7531938e-10
-1.4117063e-10
-1.8768986e-11
)
;

boundaryField
{
    frontAndBack
    {
        type            empty;
        value           nonuniform List<scalar> 0();
    }
    frontAndBack
    {
        type            empty;
        value           nonuniform List<scalar> 0();
    }
    inlet
    {
        type            calculated;
        value           nonuniform List<scalar> 
32
(
-9.9301077e-06
-2.3712905e-05
-5.6625627e-05
-0.00013521823
-0.00032288138
-0.00077093229
-0.0018403782
-0.0043913819
-0.010467095
-0.024884766
-0.058801559
-0.13696295
-0.30861501
-0.64629711
-1.1676991
-1.6387213
-1.6387213
-1.1676991
-0.64629711
-0.30861501
-0.13696295
-0.058801559
-0.024884766
-0.010467094
-0.0043913824
-0.0018403776
-0.0007709328
-0.0003228808
-0.0001352184
-5.66256e-05
-2.37128e-05
-9.9304e-06
)
;
    }
    outlet
    {
        type            calculated;
        value           nonuniform List<scalar> 
32
(
2.3880629e-06
9.1676617e-06
2.8575794e-05
8.113497e-05
0.00021866616
0.00057053781
0.0014578234
0.0036789234
0.0092471766
0.023322673
0.05809796
0.13706806
0.30901262
0.64713613
1.1692166
1.6408515
1.6408515
1.1692166
0.64713613
0.30901262
0.13706804
0.058097936
0.02332266
0.0092471766
0.0036789261
0.0014578245
0.00057053908
0.00021866624
8.1135324e-05
2.8575906e-05
9.1676895e-06
2.3881635e-06
)
;
    }
    bottom
    {
        type            calculated;
        value           uniform 0;
    }
    top
    {
        type            calculated;
        value           uniform 0;
    }
}


// ************************************************************************* //
