/*--------------------------------*- C++ -*----------------------------------*\
| =========                 |                                                 |
| \\      /  F ield         | OpenFOAM: The Open Source CFD Toolbox           |
|  \\    /   O peration     | Version:  2206                                  |
|   \\  /    A nd           | Website:  www.openfoam.com                      |
|    \\/     M anipulation  |                                                 |
\*---------------------------------------------------------------------------*/
FoamFile
{
    version     2.0;
    format      ascii;
    arch        "LSB;label=32;scalar=64";
    class       volVectorField;
    location    "1";
    object      U;
}
// * * * * * * * * * * * * * * * * * * * * * * * * * * * * * * * * * * * * * //

dimensions      [0 1 -1 0 0 0 0];

internalField   nonuniform List<vector> 
320
(
(1.924218 0 7.0667006e-09)
(3.0937593 0 2.6153166e-07)
(4.0396333 0 5.8990271e-07)
(4.8072857 0 1.3071555e-06)
(5.4375524 0 2.6937915e-06)
(5.9735352 0 5.4119605e-06)
(6.4706699 0 1.0971945e-05)
(6.9966791 0 2.1243221e-05)
(7.5561765 0 3.189439e-05)
(7.9241774 0 3.8021752e-05)
(7.9974559 0 3.9688358e-05)
(8.0004363 0 3.8771483e-05)
(8.0004596 0 3.6480242e-05)
(8.0004597 0 3.1646604e-05)
(8.0004597 0 2.2474694e-05)
(8.0004597 0 8.2854877e-06)
(8.0004597 0 -8.2851401e-06)
(8.0004597 0 -2.2474341e-05)
(8.0004597 0 -3.1646249e-05)
(8.0004596 0 -3.6479894e-05)
(8.0004363 0 -3.8771153e-05)
(7.9974559 0 -3.9688055e-05)
(7.9241778 0 -3.8021486e-05)
(7.5561785 0 -3.1894182e-05)
(6.9966836 0 -2.1243097e-05)
(6.4706769 0 -1.0971882e-05)
(5.9735444 0 -5.4119415e-06)
(5.4375641 0 -2.6937768e-06)
(4.8073005 0 -1.3071548e-06)
(4.0396511 0 -5.8990389e-07)
(3.0937823 0 -2.615319e-07)
(1.9242423 0 -7.0671099e-09)
(1.9239768 0 1.5690107e-13)
(3.0931045 0 8.3645051e-12)
(4.0377851 0 5.2773779e-11)
(4.8020794 0 3.5954893e-10)
(5.4232287 0 2.4122504e-09)
(5.9359736 0 1.5768527e-08)
(6.3809352 0 9.897715e-08)
(6.8203459 0 5.9004431e-07)
(7.3374024 0 2.964523e-06)
(7.8410494 0 7.6931192e-06)
(7.9982323 0 9.6468098e-06)
(8.0075401 0 9.2853286e-06)
(8.0077038 0 8.6405634e-06)
(8.0077183 0 7.4790673e-06)
(8.007721 0 5.3096918e-06)
(8.0077215 0 1.9574027e-06)
(8.0077215 0 -1.9574935e-06)
(8.007721 0 -5.3098096e-06)
(8.0077183 0 -7.47922e-06)
(8.0077038 0 -8.6407346e-06)
(8.0075401 0 -9.2854884e-06)
(7.9982323 0 -9.6469319e-06)
(7.8410501 0 -7.693196e-06)
(7.3374054 0 -2.9645602e-06)
(6.8203512 0 -5.9005806e-07)
(6.3809425 0 -9.8981856e-08)
(5.935983 0 -1.5770094e-08)
(5.4232404 0 -2.4127661e-09)
(4.8020942 0 -3.5971627e-10)
(4.0378029 0 -5.282108e-11)
(3.0931275 0 -8.368665e-12)
(1.9240012 0 -1.568311e-13)
(1.9239483 0 2.2748982e-14)
(3.0930259 0 1.2215449e-12)
(4.0375575 0 7.8453375e-12)
(4.8014102 0 5.5023145e-11)
(5.4212541 0 3.87078e-10)
(5.9301565 0 2.7345443e-09)
(6.3640218 0 1.9521925e-08)
(6.7741063 0 1.4456264e-07)
(7.239456 0 1.0285593e-06)
(7.7649923 0 3.8762933e-06)
(7.9891856 0 6.0144356e-06)
(8.0063523 0 6.0650795e-06)
(8.0066251 0 5.6546727e-06)
(8.006638 0 4.8940855e-06)
(8.0066405 0 3.4741462e-06)
(8.0066411 0 1.2806445e-06)
(8.0066411 0 -1.2806749e-06)
(8.0066405 0 -3.4741356e-06)
(8.006638 0 -4.8940138e-06)
(8.0066251 0 -5.6545515e-06)
(8.0063523 0 -6.0649417e-06)
(7.9891857 0 -6.0143127e-06)
(7.7649933 0 -3.8762097e-06)
(7.2394595 0 -1.0285224e-06)
(6.7741119 0 -1.4455029e-07)
(6.3640292 0 -1.951785e-08)
(5.9301659 0 -2.7332047e-09)
(5.4212658 0 -3.8665608e-10)
(4.801425 0 -5.4884189e-11)
(4.0375753 0 -7.810804e-12)
(3.0930489 0 -1.2194836e-12)
(1.9239726 0 -2.278679e-14)
(1.9239376 0 9.2928847e-15)
(3.0929965 0 4.9985437e-13)
(4.0374724 0 3.208963e-12)
(4.8011601 0 2.2503901e-11)
(5.4205159 0 1.5834626e-10)
(5.9279777 0 1.1197482e-09)
(6.3576173 0 8.0357397e-09)
(6.7557159 0 6.1000844e-08)
(7.1929155 0 4.7926141e-07)
(7.7074135 0 2.2989535e-06)
(7.9807547 0 4.180779e-06)
(8.0068461 0 4.43694e-06)
(8.0073004 0 4.1491775e-06)
(8.0073151 0 3.5912614e-06)
(8.0073179 0 2.5493728e-06)
(8.0073186 0 9.3977849e-07)
(8.0073186 0 -9.3977379e-07)
(8.0073179 0 -2.5493897e-06)
(8.0073151 0 -3.5913108e-06)
(8.0073004 0 -4.1492536e-06)
(8.0068461 0 -4.4370258e-06)
(7.9807547 0 -4.1808477e-06)
(7.7074144 0 -2.2989822e-06)
(7.1929183 0 -4.7926956e-07)
(6.7557209 0 -6.1004795e-08)
(6.3576245 0 -8.0373508e-09)
(5.927987 0 -1.1203376e-09)
(5.4205276 0 -1.5853169e-10)
(4.8011749 0 -2.2565149e-11)
(4.0374902 0 -3.2277028e-12)
(3.0930196 0 -5.0150851e-13)
(1.9239619 0 -9.3303169e-15)
(1.9239322 0 4.9438148e-15)
(3.0929818 0 2.6603819e-13)
(4.0374296 0 1.703621e-12)
(4.8010342 0 1.1956228e-11)
(5.4201446 0 8.4143236e-11)
(5.9268815 0 5.9504332e-10)
(6.3543894 0 4.2733859e-09)
(6.7463417 0 3.2614707e-08)
(7.1676659 0 2.6505409e-07)
(7.6646337 0 1.494056e-06)
(7.9718796 0 3.0559194e-06)
(8.0071212 0 3.4166646e-06)
(8.0078068 0 3.2076268e-06)
(8.0078232 0 2.7764304e-06)
(8.0078263 0 1.9709583e-06)
(8.0078269 0 7.2663527e-07)
(8.0078269 0 -7.263641e-07)
(8.0078263 0 -1.9706849e-06)
(8.0078232 0 -2.7761527e-06)
(8.0078068 0 -3.2073434e-06)
(8.0071212 0 -3.4163838e-06)
(7.9718793 0 -3.0556992e-06)
(7.6646342 0 -1.4939511e-06)
(7.1676705 0 -2.6502893e-07)
(6.7463483 0 -3.2611249e-08)
(6.3543972 0 -4.2729751e-09)
(5.926891 0 -5.9502989e-10)
(5.4201564 0 -8.4154427e-11)
(4.8010491 0 -1.1965653e-11)
(4.0374474 0 -1.7065788e-12)
(3.0930048 0 -2.652129e-13)
(1.9239566 0 -4.9439528e-15)
(1.9239291 0 3.0480662e-15)
(3.0929731 0 1.6152319e-13)
(4.0374044 0 1.0397316e-12)
(4.8009603 0 7.2924511e-12)
(5.4199263 0 5.132029e-11)
(5.9262371 0 3.6294401e-10)
(6.352491 0 2.6069398e-09)
(6.7408039 0 1.9937466e-08)
(7.1523122 0 1.6461755e-07)
(7.633285 0 1.0248138e-06)
(7.9631121 0 2.2996571e-06)
(8.0072431 0 2.7070928e-06)
(8.0082028 0 2.5537221e-06)
(8.0082212 0 2.2105861e-06)
(8.0082244 0 1.5692975e-06)
(8.0082251 0 5.7860759e-07)
(8.0082251 0 -5.7822531e-07)
(8.0082244 0 -1.5689159e-06)
(8.0082212 0 -2.2102056e-06)
(8.0082028 0 -2.5533422e-06)
(8.0072432 0 -2.7067255e-06)
(7.9631142 0 -2.2994036e-06)
(7.6332903 0 -1.0247453e-06)
(7.1523186 0 -1.6462027e-07)
(6.7408108 0 -1.9939512e-08)
(6.3524989 0 -2.6071609e-09)
(5.9262467 0 -3.6295739e-10)
(5.4199381 0 -5.1325879e-11)
(4.8009751 0 -7.2900977e-12)
(4.0374222 0 -1.0387442e-12)
(3.0929961 0 -1.6234995e-13)
(1.9239534 0 -3.0109788e-15)
(1.923927 0 2.0351416e-15)
(3.0929674 0 1.0680958e-13)
(4.0373881 0 6.900488e-13)
(4.8009123 0 4.8345611e-12)
(5.419785 0 3.4034562e-11)
(5.9258199 0 2.4064548e-10)
(6.3512616 0 1.7284928e-09)
(6.7372095 0 1.3231812e-08)
(7.1421884 0 1.1017676e-07)
(7.6103729 0 7.2572274e-07)
(7.9547828 0 1.7644738e-06)
(8.0072519 0 2.1838271e-06)
(8.0085203 0 2.0717238e-06)
(8.0085407 0 1.7934888e-06)
(8.008544 0 1.2731418e-06)
(8.0085447 0 4.6927937e-07)
(8.0085447 0 -4.6939821e-07)
(8.008544 0 -1.2732641e-06)
(8.0085407 0 -1.7936163e-06)
(8.0085203 0 -2.0718547e-06)
(8.0072521 0 -2.1839557e-06)
(7.954786 0 -1.7646093e-06)
(7.6103789 0 -7.2582776e-07)
(7.1421937 0 -1.1021254e-07)
(6.7372154 0 -1.3238515e-08)
(6.3512691 0 -1.7296617e-09)
(5.9258293 0 -2.4087988e-10)
(5.4197967 0 -3.408794e-11)
(4.8009272 0 -4.8486805e-12)
(4.0374059 0 -6.934826e-13)
(3.0929905 0 -1.0761365e-13)
(1.9239514 0 -1.9887329e-15)
(1.9239256 0 4.466423e-15)
(3.0929636 0 2.410733e-13)
(4.0373769 0 1.5298593e-12)
(4.8008794 0 1.0548735e-11)
(5.4196877 0 7.2223882e-11)
(5.9255323 0 4.8871853e-10)
(6.3504119 0 3.267402e-09)
(6.7347103 0 2.2157055e-08)
(7.1350521 0 1.504161e-07)
(7.5933158 0 7.7114239e-07)
(7.9467359 0 1.7826406e-06)
(8.0068221 0 2.2347821e-06)
(8.0084212 0 2.1298408e-06)
(8.0084432 0 1.8446987e-06)
(8.0084465 0 1.3096771e-06)
(8.0084472 0 4.8265586e-07)
(8.0084472 0 -4.8316981e-07)
(8.0084465 0 -1.3101904e-06)
(8.0084432 0 -1.845211e-06)
(8.0084211 0 -2.1303511e-06)
(8.0068222 0 -2.2352642e-06)
(7.9467381 0 -1.7830074e-06)
(7.5933184 0 -7.7130804e-07)
(7.1350547 0 -1.5044965e-07)
(6.7347149 0 -2.2161606e-08)
(6.3504189 0 -3.2679548e-09)
(5.9255416 0 -4.8879895e-10)
(5.4196994 0 -7.2232362e-11)
(4.8008942 0 -1.0551208e-11)
(4.0373947 0 -1.5309874e-12)
(3.0929866 0 -2.4083824e-13)
(1.92395 0 -4.4960136e-15)
(1.9239186 0 1.0058836e-14)
(3.0929444 0 5.3391222e-13)
(4.0373224 0 3.3864926e-12)
(4.8007235 0 2.3298346e-11)
(5.4192473 0 1.5890816e-10)
(5.9243209 0 1.0683434e-09)
(6.3472375 3.5015265e-28 7.0477576e-09)
(6.7271006 -1.581282e-27 4.6309513e-08)
(7.1196726 1.4445785e-27 2.9672599e-07)
(7.570437 0 1.3376121e-06)
(7.9363157 0 2.8918247e-06)
(8.0062564 0 3.5799445e-06)
(8.0083517 0 3.4259593e-06)
(8.0083799 0 2.9707711e-06)
(8.0083838 0 2.1104435e-06)
(8.0083847 0 7.7806593e-07)
(8.0083847 0 -7.78537e-07)
(8.0083838 0 -2.110915e-06)
(8.0083799 0 -2.9712435e-06)
(8.0083516 0 -3.4264308e-06)
(8.0062562 0 -3.5803779e-06)
(7.9363154 0 -2.8921119e-06)
(7.5704349 0 -1.3377084e-06)
(7.1196728 0 -2.9673837e-07)
(6.7271043 0 -4.6310637e-08)
(6.3472442 0 -7.0479146e-09)
(5.9243301 0 -1.068371e-09)
(5.4192589 0 -1.5890797e-10)
(4.8007383 0 -2.3301174e-11)
(4.0373402 0 -3.387587e-12)
(3.0929675 0 -5.3392822e-13)
(1.923943 0 -9.9914636e-15)
(1.9238969 0 6.2854549e-15)
(3.0928853 -9.7239196e-33 3.3663336e-13)
(4.0371536 2.3220261e-32 2.1368683e-12)
(4.8002388 -4.4357527e-31 1.4709788e-11)
(5.4178704 -1.0590406e-30 1.0042976e-10)
(5.9204997 4.5479555e-29 6.7550968e-10)
(6.3370744 -2.0524125e-38 4.4321797e-09)
(6.7021578 2.237113e-28 2.826119e-08)
(7.0680119 -9.3784736e-28 1.7493754e-07)
(7.4991449 0 8.4655446e-07)
(7.9065566 -3.085139e-26 1.9333272e-06)
(8.0087549 6.9030885e-34 2.3292504e-06)
(8.0129942 -6.9228549e-27 2.1905676e-06)
(8.013087 6.6461287e-27 1.8910029e-06)
(8.0131012 0 1.3420212e-06)
(8.0131043 0 4.9469264e-07)
(8.0131043 0 -4.9484992e-07)
(8.0131012 0 -1.3421786e-06)
(8.013087 0 -1.8911605e-06)
(8.0129942 0 -2.190725e-06)
(8.0087541 0 -2.3293907e-06)
(7.9065534 0 -1.9334028e-06)
(7.4991404 0 -8.4656549e-07)
(7.068012 0 -1.7493604e-07)
(6.7021619 0 -2.8260658e-08)
(6.3370813 0 -4.432091e-09)
(5.920509 0 -6.7549883e-10)
(5.417882 0 -1.0042819e-10)
(4.8002536 0 -1.4710221e-11)
(4.0371713 0 -2.1369638e-12)
(3.0929083 0 -3.3664577e-13)
(1.9239213 0 -6.3028974e-15)
)
;

boundaryField
{
    frontAndBack
    {
        type            empty;
    }
    frontAndBack
    {
        type            empty;
    }
    inlet
    {
        type            fixedValue;
        value           uniform (8 0 0);
    }
    outlet
    {
        type            zeroGradient;
    }
    bottom
    {
        type            noSlip;
    }
    top
    {
        type            noSlip;
    }
}


// ************************************************************************* //
