# y+ ()         
# Time          	patch           	min             	max             	average         
100             	walls	1.81050107e-01	1.69339432e+00	8.18552045e-01
100             	top	2.52805398e+00	1.88781511e+02	3.35110133e+01
200             	walls	1.64206686e-01	1.69322563e+00	8.19612016e-01
200             	top	1.59522403e+00	1.88739590e+02	3.34714629e+01
300             	walls	1.64222527e-01	1.69322562e+00	8.19611891e-01
300             	top	1.59240256e+00	1.88739678e+02	3.34714548e+01
400             	walls	1.64222569e-01	1.69322561e+00	8.19611863e-01
400             	top	1.59243087e+00	1.88739677e+02	3.34714552e+01
