 variables ="x","f(x)"
 zone f=point i=          41
          -2.98834423146             0.152649284219
          -2.83509580934             0.301720598595
          -2.68184738721             0.443719837867
          -2.52859896508             0.575318660219
          -2.37535054296             0.693432500792
          -2.22210212083             0.795292871273
          -2.06885369871             0.878512250911
          -1.91560527658             0.941140047980
          -1.76235685445             0.981708319997
          -1.60910843233             0.999266181051
          -1.45586001020             0.993402089760
          -1.30261158807             0.964253495453
          -1.14936316595             0.912503616477
         -0.996114743821             0.839365426132
         -0.842866321695             0.746553221612
         -0.689617899568             0.636242442327
         -0.536369477442             0.511018679447
         -0.383121055316             0.373817071841
         -0.229872633189             0.227853508903
       -7.662421106317E-02         7.654925283650E-02
        7.662421106316E-02        -7.654925283649E-02
          0.229872633189            -0.227853508903
          0.383121055316            -0.373817071841
          0.536369477442            -0.511018679447
          0.689617899568            -0.636242442327
          0.842866321695            -0.746553221612
          0.996114743821            -0.839365426132
           1.14936316595            -0.912503616477
           1.30261158807            -0.964253495453
           1.45586001020            -0.993402089760
           1.60910843233            -0.999266181051
           1.76235685445            -0.981708319997
           1.91560527658            -0.941140047980
           2.06885369871            -0.878512250911
           2.22210212083            -0.795292871273
           2.37535054296            -0.693432500792
           2.52859896508            -0.575318660219
           2.68184738721            -0.443719837867
           2.83509580934            -0.301720598595
           2.98834423146            -0.152649284219
           3.14159265359          -2.342906684633E-15
