 variables ="xnew","f(x)"
 zone f=point i=          41,t="case           1"
          -2.98834423146             0.152649284219
          -975.319874440             -750.608135419
           1799.54624757              422.129255429
           967.803204829              468.678335829
          -2160.92016322             -1593.53312540
           324.570241468             -1131.51406540
           92.0741758303             -65.3234695384
          -71.6761745573              733.158873097
          -150.038095300             -24.2626892658
          -702.961074250              431.280991294
           2492.82198627             -3925.13081411
          -332.563082572              383.964928594
          -70.2983153125             -62.0760568956
          -181.128097394              464.225722480
           96.1049981437              85.3187825302
           259.090254868             -369.640514588
           230.833829444             -60.6720909609
          -218.917710475              160.454067980
          -294.524655123              298.315009971
          -142.872908667              135.236931485
          -40.1940113109              37.4361678385
           78.5996138633             -50.3896305026
           120.308585672             -459.438435930
           1398.27662252             -467.558483067
          -3986.50351102              1091.01523895
           511.440451260              54.8517778153
           194.180198166             -407.993163251
           109.476338247              78.6276775688
          -110.192635147              281.520925785
          -98.0631183563              927.677210159
          -126.684223005             -70.4068382736
           757.016841948              310.278808280
           6.05668650618             -35.5783642926
          -95.1411413407              60.1648535767
          -38.6457614487              805.341683809
           266.038669602              2270.71057036
           34.4459056262              16.8167057716
          -400.208144619             -360.684008948
          -850.982927742             -700.933382251
           1076.61212534              938.273251398
           3.14159265359          -2.342906684633E-15
 variables ="xnew","f(x)"
 zone f=point i=          41,t="case           2"
          -2.98834423146             0.152649284219
           20929315895.8              7043754280.08
          -14789777932.1             -15605812477.6
          -14103788742.7             -16438221595.9
           34067821494.7              128820220754.
          -28019032909.4             -50541580443.0
           10943553697.1              26813796137.9
           2154168539.14             -1540109424.69
          -16415807329.9              2818355297.52
           35079985443.5             -44906415998.3
          -43668493635.2              10661037143.8
           32771251226.4             -38981289031.0
          -15153671514.3              5462874733.43
           4881445976.85             -10213783931.4
          -1542426228.61             -2994310158.87
           1197951065.42             -1885477973.43
          -2135677911.14              1797776939.91
           1886900053.33             -1521910673.35
          -235443285.523              162703722.456
          -658010646.089              21241509745.6
           1407298198.75             -443284001.177
          -8299430826.72              1901981991.97
           30107841089.9             -19545501392.7
          -60680831029.6              27889890899.5
           72426472955.3             -53667320364.8
          -51733133217.0              23368109358.5
           21305382965.1             -301936000146.
          -5126436900.55             -5760776453.10
           2202691400.42          -1.145818593006E+12
          -4483509175.76             -11123606819.4
           8869019635.71             -40045186699.5
          -10819690857.4             -44966959271.5
           7451341674.49             -24172053589.2
          -3280640084.84             -12364815294.9
           2344157095.59              34567343755.0
          -2208952672.04              28865142551.1
           2467835016.68             -7445983116.91
          -8392645421.02             -8851549067.02
           17742983219.5              14065683992.6
          -16642386200.0             -13651333568.9
           3.14159265359          -2.342906684633E-15
 variables ="xnew","f(x)"
 zone f=point i=          41,t="case           3"
          -2.98834423146             0.152649284219
       -2.584460597224E+17        -4.991094174448E+17
        9.782251933249E+16         1.345396149276E+17
        4.243278036692E+17         2.134724292006E+18
       -8.602582984819E+17        -3.458077768338E+18
        8.665190500519E+17         6.383262694306E+18
       -4.698720349792E+17        -1.287733616870E+18
       -1.203887417656E+17        -1.706704411386E+17
        7.391189534058E+17        -2.912887742286E+18
       -1.233953902467E+18         5.708146348690E+18
        1.417921701612E+18         3.049402722126E+18
       -1.219697130720E+18         6.167332227569E+18
        7.987519521324E+17        -3.914400823623E+18
       -4.063625711668E+17         1.707632852186E+17
        1.771398626097E+17         4.906379805235E+17
       -9.188260688728E+16         6.765123990810E+19
        7.056980360522E+16        -4.525543080518E+18
       -5.207435454167E+16        -4.651826402502E+19
        1.384386025977E+16         3.382573155903E+16
        6.615300526302E+16        -4.566402465372E+16
       -2.724853242967E+17         2.528730397934E+17
        7.335278083093E+17        -6.394695217063E+17
       -1.448850583316E+18         5.780454503234E+17
        2.129202862631E+18        -2.084823490121E+20
       -2.347800782318E+18         2.402569978692E+18
        1.948164801052E+18        -1.491303694505E+20
       -1.217811250778E+18         9.213019543267E+17
        5.941652233427E+17         1.631350744174E+19
       -2.937318206544E+17         3.709251392567E+18
        2.584236491085E+17        -9.278046094085E+19
       -3.214956420191E+17        -3.032385635765E+18
        3.479914098062E+17        -7.367432430025E+20
       -2.951878374079E+17        -1.243135511871E+19
        2.052845611746E+17        -6.284650455226E+19
       -1.413771195805E+17        -7.131553698994E+18
        1.438835045636E+17        -4.654607965214E+19
       -2.371452877891E+17        -4.962801399528E+18
        3.984469909383E+17        -2.752341424420E+19
       -4.961982389036E+17        -1.181781440430E+19
        3.626205901720E+17        -3.048340012925E+17
           3.14159265359          -2.342906684633E-15