/*--------------------------------*- C++ -*----------------------------------*\
| =========                 |                                                 |
| \\      /  F ield         | OpenFOAM: The Open Source CFD Toolbox           |
|  \\    /   O peration     | Version:  2206                                  |
|   \\  /    A nd           | Website:  www.openfoam.com                      |
|    \\/     M anipulation  |                                                 |
\*---------------------------------------------------------------------------*/
FoamFile
{
    version     2.0;
    format      ascii;
    arch        "LSB;label=32;scalar=64";
    class       volVectorField;
    location    "5000";
    object      C;
}
// * * * * * * * * * * * * * * * * * * * * * * * * * * * * * * * * * * * * * //

dimensions      [0 1 0 0 0 0 0];

internalField   nonuniform List<vector> 
320
(
(31.25 -0.5 6.2063173e-07)
(31.25 -0.5 2.72332e-06)
(31.25 -0.5 7.7444782e-06)
(31.25 -0.5 1.9734719e-05)
(31.25 -0.5 4.8365944e-05)
(31.25 -0.5 0.0001167293)
(31.25 -0.5 0.0002799362)
(31.25 -0.5 0.00066942121)
(31.25 -0.5 0.001598076)
(31.25 -0.5 0.0038075673)
(31.25 -0.5 0.0090379626)
(31.25 -0.5 0.021273245)
(31.25 -0.5 0.049121868)
(31.25 -0.5 0.10880388)
(31.25 -0.5 0.22217864)
(31.25 -0.5 0.39757992)
(31.25 -0.5 0.60242008)
(31.25 -0.5 0.77782136)
(31.25 -0.5 0.89119612)
(31.25 -0.5 0.95087813)
(31.25 -0.5 0.97872676)
(31.25 -0.5 0.99096204)
(31.25 -0.5 0.99619243)
(31.25 -0.5 0.99840192)
(31.25 -0.5 0.99933058)
(31.25 -0.5 0.99972006)
(31.25 -0.5 0.99988327)
(31.25 -0.5 0.99995163)
(31.25 -0.5 0.99998027)
(31.25 -0.5 0.99999226)
(31.25 -0.5 0.99999728)
(31.25 -0.5 0.99999938)
(93.75 -0.5 6.2063173e-07)
(93.75 -0.5 2.72332e-06)
(93.75 -0.5 7.7444782e-06)
(93.75 -0.5 1.9734719e-05)
(93.75 -0.5 4.8365944e-05)
(93.75 -0.5 0.0001167293)
(93.75 -0.5 0.0002799362)
(93.75 -0.5 0.00066942121)
(93.75 -0.5 0.001598076)
(93.75 -0.5 0.0038075673)
(93.75 -0.5 0.0090379626)
(93.75 -0.5 0.021273245)
(93.75 -0.5 0.049121868)
(93.75 -0.5 0.10880388)
(93.75 -0.5 0.22217864)
(93.75 -0.5 0.39757992)
(93.75 -0.5 0.60242008)
(93.75 -0.5 0.77782136)
(93.75 -0.5 0.89119612)
(93.75 -0.5 0.95087813)
(93.75 -0.5 0.97872676)
(93.75 -0.5 0.99096204)
(93.75 -0.5 0.99619243)
(93.75 -0.5 0.99840192)
(93.75 -0.5 0.99933058)
(93.75 -0.5 0.99972006)
(93.75 -0.5 0.99988327)
(93.75 -0.5 0.99995163)
(93.75 -0.5 0.99998027)
(93.75 -0.5 0.99999226)
(93.75 -0.5 0.99999728)
(93.75 -0.5 0.99999938)
(156.25 -0.5 6.2063173e-07)
(156.25 -0.5 2.72332e-06)
(156.25 -0.5 7.7444782e-06)
(156.25 -0.5 1.9734719e-05)
(156.25 -0.5 4.8365944e-05)
(156.25 -0.5 0.0001167293)
(156.25 -0.5 0.0002799362)
(156.25 -0.5 0.00066942121)
(156.25 -0.5 0.001598076)
(156.25 -0.5 0.0038075673)
(156.25 -0.5 0.0090379626)
(156.25 -0.5 0.021273245)
(156.25 -0.5 0.049121868)
(156.25 -0.5 0.10880388)
(156.25 -0.5 0.22217864)
(156.25 -0.5 0.39757992)
(156.25 -0.5 0.60242008)
(156.25 -0.5 0.77782136)
(156.25 -0.5 0.89119612)
(156.25 -0.5 0.95087813)
(156.25 -0.5 0.97872676)
(156.25 -0.5 0.99096204)
(156.25 -0.5 0.99619243)
(156.25 -0.5 0.99840192)
(156.25 -0.5 0.99933058)
(156.25 -0.5 0.99972006)
(156.25 -0.5 0.99988327)
(156.25 -0.5 0.99995163)
(156.25 -0.5 0.99998027)
(156.25 -0.5 0.99999226)
(156.25 -0.5 0.99999728)
(156.25 -0.5 0.99999938)
(218.75 -0.5 6.2063173e-07)
(218.75 -0.5 2.72332e-06)
(218.75 -0.5 7.7444782e-06)
(218.75 -0.5 1.9734719e-05)
(218.75 -0.5 4.8365944e-05)
(218.75 -0.5 0.0001167293)
(218.75 -0.5 0.0002799362)
(218.75 -0.5 0.00066942121)
(218.75 -0.5 0.001598076)
(218.75 -0.5 0.0038075673)
(218.75 -0.5 0.0090379626)
(218.75 -0.5 0.021273245)
(218.75 -0.5 0.049121868)
(218.75 -0.5 0.10880388)
(218.75 -0.5 0.22217864)
(218.75 -0.5 0.39757992)
(218.75 -0.5 0.60242008)
(218.75 -0.5 0.77782136)
(218.75 -0.5 0.89119612)
(218.75 -0.5 0.95087813)
(218.75 -0.5 0.97872676)
(218.75 -0.5 0.99096204)
(218.75 -0.5 0.99619243)
(218.75 -0.5 0.99840192)
(218.75 -0.5 0.99933058)
(218.75 -0.5 0.99972006)
(218.75 -0.5 0.99988327)
(218.75 -0.5 0.99995163)
(218.75 -0.5 0.99998027)
(218.75 -0.5 0.99999226)
(218.75 -0.5 0.99999728)
(218.75 -0.5 0.99999938)
(281.25 -0.5 6.2063173e-07)
(281.25 -0.5 2.72332e-06)
(281.25 -0.5 7.7444782e-06)
(281.25 -0.5 1.9734719e-05)
(281.25 -0.5 4.8365944e-05)
(281.25 -0.5 0.0001167293)
(281.25 -0.5 0.0002799362)
(281.25 -0.5 0.00066942121)
(281.25 -0.5 0.001598076)
(281.25 -0.5 0.0038075673)
(281.25 -0.5 0.0090379626)
(281.25 -0.5 0.021273245)
(281.25 -0.5 0.049121868)
(281.25 -0.5 0.10880388)
(281.25 -0.5 0.22217864)
(281.25 -0.5 0.39757992)
(281.25 -0.5 0.60242008)
(281.25 -0.5 0.77782136)
(281.25 -0.5 0.89119612)
(281.25 -0.5 0.95087813)
(281.25 -0.5 0.97872676)
(281.25 -0.5 0.99096204)
(281.25 -0.5 0.99619243)
(281.25 -0.5 0.99840192)
(281.25 -0.5 0.99933058)
(281.25 -0.5 0.99972006)
(281.25 -0.5 0.99988327)
(281.25 -0.5 0.99995163)
(281.25 -0.5 0.99998027)
(281.25 -0.5 0.99999226)
(281.25 -0.5 0.99999728)
(281.25 -0.5 0.99999938)
(343.75 -0.5 6.2063173e-07)
(343.75 -0.5 2.72332e-06)
(343.75 -0.5 7.7444782e-06)
(343.75 -0.5 1.9734719e-05)
(343.75 -0.5 4.8365944e-05)
(343.75 -0.5 0.0001167293)
(343.75 -0.5 0.0002799362)
(343.75 -0.5 0.00066942121)
(343.75 -0.5 0.001598076)
(343.75 -0.5 0.0038075673)
(343.75 -0.5 0.0090379626)
(343.75 -0.5 0.021273245)
(343.75 -0.5 0.049121868)
(343.75 -0.5 0.10880388)
(343.75 -0.5 0.22217864)
(343.75 -0.5 0.39757992)
(343.75 -0.5 0.60242008)
(343.75 -0.5 0.77782136)
(343.75 -0.5 0.89119612)
(343.75 -0.5 0.95087813)
(343.75 -0.5 0.97872676)
(343.75 -0.5 0.99096204)
(343.75 -0.5 0.99619243)
(343.75 -0.5 0.99840192)
(343.75 -0.5 0.99933058)
(343.75 -0.5 0.99972006)
(343.75 -0.5 0.99988327)
(343.75 -0.5 0.99995163)
(343.75 -0.5 0.99998027)
(343.75 -0.5 0.99999226)
(343.75 -0.5 0.99999728)
(343.75 -0.5 0.99999938)
(406.25 -0.5 6.2063173e-07)
(406.25 -0.5 2.72332e-06)
(406.25 -0.5 7.7444782e-06)
(406.25 -0.5 1.9734719e-05)
(406.25 -0.5 4.8365944e-05)
(406.25 -0.5 0.0001167293)
(406.25 -0.5 0.0002799362)
(406.25 -0.5 0.00066942121)
(406.25 -0.5 0.001598076)
(406.25 -0.5 0.0038075673)
(406.25 -0.5 0.0090379626)
(406.25 -0.5 0.021273245)
(406.25 -0.5 0.049121868)
(406.25 -0.5 0.10880388)
(406.25 -0.5 0.22217864)
(406.25 -0.5 0.39757992)
(406.25 -0.5 0.60242008)
(406.25 -0.5 0.77782136)
(406.25 -0.5 0.89119612)
(406.25 -0.5 0.95087813)
(406.25 -0.5 0.97872676)
(406.25 -0.5 0.99096204)
(406.25 -0.5 0.99619243)
(406.25 -0.5 0.99840192)
(406.25 -0.5 0.99933058)
(406.25 -0.5 0.99972006)
(406.25 -0.5 0.99988327)
(406.25 -0.5 0.99995163)
(406.25 -0.5 0.99998027)
(406.25 -0.5 0.99999226)
(406.25 -0.5 0.99999728)
(406.25 -0.5 0.99999938)
(468.75 -0.5 6.2063173e-07)
(468.75 -0.5 2.72332e-06)
(468.75 -0.5 7.7444782e-06)
(468.75 -0.5 1.9734719e-05)
(468.75 -0.5 4.8365944e-05)
(468.75 -0.5 0.0001167293)
(468.75 -0.5 0.0002799362)
(468.75 -0.5 0.00066942121)
(468.75 -0.5 0.001598076)
(468.75 -0.5 0.0038075673)
(468.75 -0.5 0.0090379626)
(468.75 -0.5 0.021273245)
(468.75 -0.5 0.049121868)
(468.75 -0.5 0.10880388)
(468.75 -0.5 0.22217864)
(468.75 -0.5 0.39757992)
(468.75 -0.5 0.60242008)
(468.75 -0.5 0.77782136)
(468.75 -0.5 0.89119612)
(468.75 -0.5 0.95087813)
(468.75 -0.5 0.97872676)
(468.75 -0.5 0.99096204)
(468.75 -0.5 0.99619243)
(468.75 -0.5 0.99840192)
(468.75 -0.5 0.99933058)
(468.75 -0.5 0.99972006)
(468.75 -0.5 0.99988327)
(468.75 -0.5 0.99995163)
(468.75 -0.5 0.99998027)
(468.75 -0.5 0.99999226)
(468.75 -0.5 0.99999728)
(468.75 -0.5 0.99999938)
(537.77859 -0.5 6.2063173e-07)
(537.77859 -0.5 2.72332e-06)
(537.77859 -0.5 7.7444782e-06)
(537.77859 -0.5 1.9734719e-05)
(537.77859 -0.5 4.8365944e-05)
(537.77859 -0.5 0.0001167293)
(537.77859 -0.5 0.0002799362)
(537.77859 -0.5 0.00066942121)
(537.77859 -0.5 0.001598076)
(537.77859 -0.5 0.0038075673)
(537.77859 -0.5 0.0090379626)
(537.77859 -0.5 0.021273245)
(537.77859 -0.5 0.049121868)
(537.77859 -0.5 0.10880388)
(537.77859 -0.5 0.22217864)
(537.77859 -0.5 0.39757992)
(537.77859 -0.5 0.60242008)
(537.77859 -0.5 0.77782136)
(537.77859 -0.5 0.89119612)
(537.77859 -0.5 0.95087813)
(537.77859 -0.5 0.97872676)
(537.77859 -0.5 0.99096204)
(537.77859 -0.5 0.99619243)
(537.77859 -0.5 0.99840192)
(537.77859 -0.5 0.99933058)
(537.77859 -0.5 0.99972006)
(537.77859 -0.5 0.99988327)
(537.77859 -0.5 0.99995163)
(537.77859 -0.5 0.99998027)
(537.77859 -0.5 0.99999226)
(537.77859 -0.5 0.99999728)
(537.77859 -0.5 0.99999938)
(662.77859 -0.5 6.2063173e-07)
(662.77859 -0.5 2.72332e-06)
(662.77859 -0.5 7.7444782e-06)
(662.77859 -0.5 1.9734719e-05)
(662.77859 -0.5 4.8365944e-05)
(662.77859 -0.5 0.0001167293)
(662.77859 -0.5 0.0002799362)
(662.77859 -0.5 0.00066942121)
(662.77859 -0.5 0.001598076)
(662.77859 -0.5 0.0038075673)
(662.77859 -0.5 0.0090379626)
(662.77859 -0.5 0.021273245)
(662.77859 -0.5 0.049121868)
(662.77859 -0.5 0.10880388)
(662.77859 -0.5 0.22217864)
(662.77859 -0.5 0.39757992)
(662.77859 -0.5 0.60242008)
(662.77859 -0.5 0.77782136)
(662.77859 -0.5 0.89119612)
(662.77859 -0.5 0.95087813)
(662.77859 -0.5 0.97872676)
(662.77859 -0.5 0.99096204)
(662.77859 -0.5 0.99619243)
(662.77859 -0.5 0.99840192)
(662.77859 -0.5 0.99933058)
(662.77859 -0.5 0.99972006)
(662.77859 -0.5 0.99988327)
(662.77859 -0.5 0.99995163)
(662.77859 -0.5 0.99998027)
(662.77859 -0.5 0.99999226)
(662.77859 -0.5 0.99999728)
(662.77859 -0.5 0.99999938)
)
;

boundaryField
{
    frontAndBack
    {
        type            empty;
    }
    frontAndBack
    {
        type            empty;
    }
    inlet
    {
        type            calculated;
        value           nonuniform List<vector> 
32
(
(0 -0.5 6.2063173e-07)
(0 -0.5 2.72332e-06)
(0 -0.5 7.7444782e-06)
(0 -0.5 1.9734719e-05)
(0 -0.5 4.8365944e-05)
(0 -0.5 0.0001167293)
(0 -0.5 0.0002799362)
(0 -0.5 0.00066942121)
(0 -0.5 0.001598076)
(0 -0.5 0.0038075673)
(0 -0.5 0.0090379626)
(0 -0.5 0.021273245)
(0 -0.5 0.049121868)
(0 -0.5 0.10880388)
(0 -0.5 0.22217864)
(0 -0.5 0.39757992)
(0 -0.5 0.60242008)
(0 -0.5 0.77782136)
(0 -0.5 0.89119612)
(0 -0.5 0.95087813)
(0 -0.5 0.97872676)
(0 -0.5 0.99096204)
(0 -0.5 0.99619243)
(0 -0.5 0.99840192)
(0 -0.5 0.99933058)
(0 -0.5 0.99972006)
(0 -0.5 0.99988327)
(0 -0.5 0.99995163)
(0 -0.5 0.99998027)
(0 -0.5 0.99999226)
(0 -0.5 0.99999728)
(0 -0.5 0.99999938)
)
;
    }
    outlet
    {
        type            calculated;
        value           nonuniform List<vector> 
32
(
(750 -0.5 6.2063173e-07)
(750 -0.5 2.72332e-06)
(750 -0.5 7.7444782e-06)
(750 -0.5 1.9734719e-05)
(750 -0.5 4.8365944e-05)
(750 -0.5 0.0001167293)
(750 -0.5 0.0002799362)
(750 -0.5 0.00066942121)
(750 -0.5 0.001598076)
(750 -0.5 0.0038075673)
(750 -0.5 0.0090379626)
(750 -0.5 0.021273245)
(750 -0.5 0.049121868)
(750 -0.5 0.10880388)
(750 -0.5 0.22217864)
(750 -0.5 0.39757992)
(750 -0.5 0.60242008)
(750 -0.5 0.77782136)
(750 -0.5 0.89119612)
(750 -0.5 0.95087813)
(750 -0.5 0.97872676)
(750 -0.5 0.99096204)
(750 -0.5 0.99619243)
(750 -0.5 0.99840192)
(750 -0.5 0.99933058)
(750 -0.5 0.99972006)
(750 -0.5 0.99988327)
(750 -0.5 0.99995163)
(750 -0.5 0.99998027)
(750 -0.5 0.99999226)
(750 -0.5 0.99999728)
(750 -0.5 0.99999938)
)
;
    }
    bottom
    {
        type            calculated;
        value           nonuniform List<vector> 10((31.25 -0.5 0) (93.75 -0.5 0) (156.25 -0.5 0) (218.75 -0.5 0) (281.25 -0.5 0) (343.75 -0.5 0) (406.25 -0.5 0) (468.75 -0.5 0) (537.77859 -0.5 0) (662.77859 -0.5 0));
    }
    top
    {
        type            calculated;
        value           nonuniform List<vector> 10((31.25 -0.5 1) (93.75 -0.5 1) (156.25 -0.5 1) (218.75 -0.5 1) (281.25 -0.5 1) (343.75 -0.5 1) (406.25 -0.5 1) (468.75 -0.5 1) (537.77859 -0.5 1) (662.77859 -0.5 1));
    }
}


// ************************************************************************* //
