/*--------------------------------*- C++ -*----------------------------------*\
| =========                 |                                                 |
| \\      /  F ield         | OpenFOAM: The Open Source CFD Toolbox           |
|  \\    /   O peration     | Version:  2206                                  |
|   \\  /    A nd           | Website:  www.openfoam.com                      |
|    \\/     M anipulation  |                                                 |
\*---------------------------------------------------------------------------*/
FoamFile
{
    version     2.0;
    format      ascii;
    arch        "LSB;label=32;scalar=64";
    class       volScalarField;
    location    "5000";
    object      nut;
}
// * * * * * * * * * * * * * * * * * * * * * * * * * * * * * * * * * * * * * //

dimensions      [0 2 -1 0 0 0 0];

internalField   nonuniform List<scalar> 
320
(
2.7320393e-11
5.1120229e-09
4.7155873e-07
1.5924945e-06
3.7624549e-06
9.0786356e-06
2.634872e-05
7.6635094e-05
0.00019154778
0.00042714233
0.00086775257
0.0016997463
0.0031037806
0.0047150774
0.0053538186
0.0042218006
0.0042217874
0.0053537992
0.0047150718
0.0031038082
0.0016998147
0.00086782633
0.00042716965
0.00019154402
7.6619213e-05
2.6335544e-05
9.0781408e-06
3.7626526e-06
1.5927699e-06
4.7166763e-07
5.1123644e-09
2.7321546e-11
1.3186564e-11
4.7872638e-09
3.4235371e-07
1.5520628e-06
4.9092625e-06
1.3962054e-05
3.5031903e-05
8.2932854e-05
0.00018001345
0.00033337369
0.00069699039
0.0016968828
0.0039621548
0.0073130337
0.010185914
0.010250081
0.010250044
0.010185838
0.0073129166
0.0039620267
0.0016968155
0.00069702433
0.00033347335
0.00018005341
8.2935236e-05
3.5031454e-05
1.396087e-05
4.9082687e-06
1.5518908e-06
3.4236577e-07
4.7875484e-09
1.3190352e-11
1.3564814e-11
4.9637543e-09
3.5187344e-07
1.5511598e-06
4.8758693e-06
1.3995549e-05
3.5299632e-05
8.3729007e-05
0.00018360922
0.0003415384
0.00069919133
0.0016755129
0.0039722689
0.0075627828
0.011030776
0.011845458
0.011845408
0.011030684
0.0075626522
0.0039721349
0.0016754573
0.0006992284
0.00034163279
0.00018364248
8.3730751e-05
3.5299089e-05
1.3994379e-05
4.8749037e-06
1.551008e-06
3.5188851e-07
4.9640183e-09
1.3568508e-11
1.3518856e-11
4.9583629e-09
3.5154784e-07
1.5526251e-06
4.885148e-06
1.400387e-05
3.5290395e-05
8.3639382e-05
0.00018285395
0.0003397537
0.00069732501
0.001671693
0.0039469664
0.0074978434
0.010963999
0.011903071
0.011903018
0.010963907
0.0074977151
0.0039468369
0.0016716385
0.00069736051
0.00033984479
0.00018288692
8.3641177e-05
3.5289889e-05
1.4002736e-05
4.8842089e-06
1.5524758e-06
3.5156226e-07
4.958629e-09
1.3522422e-11
1.3618398e-11
4.9810452e-09
3.5292064e-07
1.5506169e-06
4.8684576e-06
1.3993147e-05
3.5317325e-05
8.3753157e-05
0.00018361641
0.00034178794
0.00069852404
0.0016718582
0.0039409842
0.0074751793
0.01091594
0.011849744
0.011849693
0.010915853
0.007475061
0.0039408668
0.0016718113
0.00069855954
0.00034187327
0.00018364625
8.3754714e-05
3.5316819e-05
1.3992069e-05
4.8675694e-06
1.5504795e-06
3.5293533e-07
4.981303e-09
1.3621797e-11
1.3534653e-11
4.9787201e-09
3.5260661e-07
1.5537568e-06
4.888266e-06
1.4016436e-05
3.5325362e-05
8.3707725e-05
0.00018289419
0.00033975287
0.00069764061
0.0016725811
0.0039441712
0.0074801902
0.01092052
0.011849508
0.01184946
0.010920438
0.0074800779
0.0039440588
0.0016725338
0.00069767174
0.00033983271
0.00018292321
8.3709309e-05
3.5324914e-05
1.4015432e-05
4.8874353e-06
1.5536256e-06
3.5261991e-07
4.9789817e-09
1.3537765e-11
1.3359055e-11
4.9739679e-09
3.5201786e-07
1.5608219e-06
4.9312006e-06
1.4066567e-05
3.5340997e-05
8.3602315e-05
0.00018127153
0.00033549175
0.00069596389
0.0016747499
0.0039498136
0.0074870986
0.010928319
0.011856719
0.011856673
0.010928239
0.0074869885
0.0039497016
0.0016746979
0.0006959895
0.00033556661
0.00018130108
8.3604073e-05
3.5340641e-05
1.406564e-05
4.9304224e-06
1.5606933e-06
3.5202928e-07
4.9742428e-09
1.3361887e-11
1.3155093e-11
4.9715014e-09
3.5161522e-07
1.5702039e-06
4.9846241e-06
1.4129738e-05
3.5362922e-05
8.347173e-05
0.00017914467
0.0003303829
0.000694344
0.00167855
0.0039574669
0.0074943475
0.010933589
0.01186068
0.011860635
0.010933511
0.0074942389
0.0039573546
0.0016784926
0.00069436449
0.00033045266
0.00017917523
8.3473698e-05
3.5362673e-05
1.4128889e-05
4.9838941e-06
1.5700764e-06
3.5162507e-07
4.9717909e-09
1.3157704e-11
1.2941036e-11
4.9669238e-09
3.5119515e-07
1.5809409e-06
5.0422154e-06
1.4195593e-05
3.5378126e-05
8.3303065e-05
0.00017660918
0.00032491624
0.00069271823
0.0016824106
0.0039650381
0.0075026517
0.010943235
0.011870668
0.011870626
0.010943163
0.0075025507
0.0039649324
0.0016823519
0.00069273304
0.00032497566
0.00017663863
8.3305043e-05
3.5377976e-05
1.4194873e-05
5.0415785e-06
1.5808222e-06
3.5120395e-07
4.9672097e-09
1.2943307e-11
1.2715043e-11
4.9628606e-09
3.5071736e-07
1.5933838e-06
5.1039484e-06
1.4264391e-05
3.5390354e-05
8.3101917e-05
0.00017361242
0.00031923596
0.00069101852
0.0016854487
0.0039712556
0.0075126834
0.010964087
0.011897996
0.011897956
0.010964017
0.0075125831
0.003971149
0.0016853847
0.00069102934
0.00031928819
0.00017364267
8.3103918e-05
3.5390218e-05
1.4263733e-05
5.1033549e-06
1.5932626e-06
3.5072676e-07
4.9630904e-09
1.271732e-11
)
;

boundaryField
{
    frontAndBack
    {
        type            empty;
    }
    frontAndBack
    {
        type            empty;
    }
    inlet
    {
        type            freestream;
        freestreamValue uniform 4.86e-06;
        value           uniform 4.86e-06;
    }
    outlet
    {
        type            freestream;
        freestreamValue uniform 4.86e-06;
        value           nonuniform List<scalar> 
32
(
1.2715043e-11
4.9628606e-09
3.5071736e-07
1.5933838e-06
5.1039484e-06
1.4264391e-05
3.5390354e-05
8.3101917e-05
0.00017361242
0.00031923596
0.00069101852
0.0016854487
0.0039712556
0.0075126834
0.010964087
0.011897996
0.011897956
0.010964017
0.0075125831
0.003971149
0.0016853847
0.00069102934
0.00031928819
0.00017364267
8.3103918e-05
3.5390218e-05
1.4263733e-05
5.1033549e-06
1.5932626e-06
3.5072676e-07
4.9630904e-09
1.271732e-11
)
;
    }
    bottom
    {
        type            nutkWallFunction;
        blending        stepwise;
        value           uniform 0;
    }
    top
    {
        type            nutkWallFunction;
        blending        stepwise;
        value           uniform 0;
    }
}


// ************************************************************************* //
