/*--------------------------------*- C++ -*----------------------------------*\
| =========                 |                                                 |
| \\      /  F ield         | OpenFOAM: The Open Source CFD Toolbox           |
|  \\    /   O peration     | Version:  2206                                  |
|   \\  /    A nd           | Website:  www.openfoam.com                      |
|    \\/     M anipulation  |                                                 |
\*---------------------------------------------------------------------------*/
FoamFile
{
    version     2.0;
    format      ascii;
    arch        "LSB;label=32;scalar=64";
    class       volScalarField;
    location    "5000";
    object      nuTilda;
}
// * * * * * * * * * * * * * * * * * * * * * * * * * * * * * * * * * * * * * //

dimensions      [0 2 -1 0 0 0 0];

internalField   nonuniform List<scalar> 
320
(
5.5926617e-08
2.0810968e-07
8.0053679e-07
1.7070716e-06
3.7872449e-06
9.0829719e-06
2.6349235e-05
7.6635155e-05
0.00019154779
0.00042714233
0.00086775257
0.0016997463
0.0031037806
0.0047150774
0.0053538186
0.0042218006
0.0042217874
0.0053537992
0.0047150718
0.0031038082
0.0016998147
0.00086782633
0.00042716965
0.00019154403
7.6619274e-05
2.633606e-05
9.0824775e-06
3.78744e-06
1.7073173e-06
8.0061959e-07
2.0811322e-07
5.5927207e-08
4.6613036e-08
2.0466116e-07
6.9983818e-07
1.6710987e-06
4.9239803e-06
1.3963889e-05
3.5032195e-05
8.2932906e-05
0.00018001346
0.00033337369
0.00069699039
0.0016968828
0.0039621548
0.0073130337
0.010185914
0.010250081
0.010250044
0.010185838
0.0073129166
0.0039620267
0.0016968155
0.00069702433
0.00033347335
0.00018005342
8.2935288e-05
3.5031746e-05
1.3962705e-05
4.9229923e-06
1.6709462e-06
6.9984792e-07
2.0466426e-07
4.6616384e-08
4.6943838e-08
2.0655577e-07
7.0749609e-07
1.6702977e-06
4.8907867e-06
1.3997375e-05
3.5299919e-05
8.3729058e-05
0.00018360923
0.0003415384
0.00069919133
0.0016755129
0.0039722689
0.0075627828
0.011030776
0.011845458
0.011845408
0.011030684
0.0075626522
0.0039721349
0.0016754573
0.0006992284
0.00034163279
0.00018364249
8.3730802e-05
3.5299376e-05
1.3996206e-05
4.8898268e-06
1.6701631e-06
7.0750817e-07
2.0655857e-07
4.6947035e-08
4.6904018e-08
2.0649863e-07
7.0723501e-07
1.6715976e-06
4.9000094e-06
1.4005694e-05
3.5290682e-05
8.3639433e-05
0.00018285396
0.0003397537
0.00069732501
0.001671693
0.0039469664
0.0074978434
0.010963999
0.011903071
0.011903018
0.010963907
0.0074977151
0.0039468369
0.0016716385
0.00069736052
0.00033984479
0.00018288693
8.3641228e-05
3.5290176e-05
1.4004561e-05
4.899076e-06
1.6714651e-06
7.0724658e-07
2.0650145e-07
4.6907111e-08
4.699014e-08
2.0673872e-07
7.0833534e-07
1.6698162e-06
4.8834198e-06
1.3994974e-05
3.5317612e-05
8.3753208e-05
0.00018361642
0.00034178794
0.00069852404
0.0016718582
0.0039409842
0.0074751793
0.01091594
0.011849744
0.011849693
0.010915853
0.007475061
0.0039408668
0.0016718113
0.00069855954
0.00034187327
0.00018364626
8.3754765e-05
3.5317106e-05
1.3993896e-05
4.8825369e-06
1.6696943e-06
7.0834711e-07
2.0674144e-07
4.6993072e-08
4.6917717e-08
2.0671415e-07
7.0808373e-07
1.6726017e-06
4.9031088e-06
1.4018257e-05
3.5325649e-05
8.3707776e-05
0.0001828942
0.00033975287
0.00069764061
0.0016725811
0.0039441712
0.0074801902
0.01092052
0.011849508
0.01184946
0.010920438
0.0074800779
0.0039440588
0.0016725338
0.00069767175
0.00033983271
0.00018292322
8.370936e-05
3.5325201e-05
1.4017254e-05
4.9022831e-06
1.6724853e-06
7.0809438e-07
2.0671691e-07
4.6920414e-08
4.676476e-08
2.0666389e-07
7.0761186e-07
1.6788741e-06
4.9457894e-06
1.4068375e-05
3.5341283e-05
8.3602367e-05
0.00018127154
0.00033549175
0.00069596389
0.0016747499
0.0039498136
0.0074870986
0.010928319
0.011856719
0.011856673
0.010928239
0.0074869885
0.0039497016
0.0016746979
0.0006959895
0.00033556661
0.00018130109
8.3604124e-05
3.5340927e-05
1.4067449e-05
4.9450158e-06
1.6787599e-06
7.0762101e-07
2.066668e-07
4.6767239e-08
4.6585194e-08
2.066378e-07
7.0728905e-07
1.6872134e-06
4.9989059e-06
1.413153e-05
3.5363208e-05
8.3471781e-05
0.00017914468
0.00033038291
0.000694344
0.00167855
0.0039574669
0.0074943475
0.010933589
0.01186068
0.011860635
0.010933511
0.0074942389
0.0039573546
0.0016784926
0.0006943645
0.00033045266
0.00017917524
8.3473749e-05
3.5362959e-05
1.4130681e-05
4.99818e-06
1.6870999e-06
7.0729695e-07
2.0664086e-07
4.6587505e-08
4.639448e-08
2.0658934e-07
7.0695216e-07
1.6967709e-06
5.0561768e-06
1.4197369e-05
3.5378412e-05
8.3303117e-05
0.00017660919
0.00032491625
0.00069271823
0.0016824106
0.0039650381
0.0075026517
0.010943235
0.011870668
0.011870626
0.010943163
0.0075025507
0.0039649324
0.0016823519
0.00069273304
0.00032497566
0.00017663864
8.3305095e-05
3.5378262e-05
1.4196649e-05
5.0555434e-06
1.6966651e-06
7.0695922e-07
2.0659237e-07
4.6396516e-08
4.6190547e-08
2.065463e-07
7.0656887e-07
1.7078651e-06
5.1175781e-06
1.426615e-05
3.539064e-05
8.3101968e-05
0.00017361243
0.00031923596
0.00069101852
0.0016854487
0.0039712556
0.0075126834
0.010964087
0.011897996
0.011897956
0.010964017
0.0075125831
0.003971149
0.0016853847
0.00069102934
0.00031928819
0.00017364268
8.310397e-05
3.5390504e-05
1.4265491e-05
5.1169878e-06
1.707757e-06
7.0657642e-07
2.0654874e-07
4.6192615e-08
)
;

boundaryField
{
    frontAndBack
    {
        type            empty;
    }
    frontAndBack
    {
        type            empty;
    }
    inlet
    {
        type            fixedValue;
        value           uniform 5e-07;
    }
    outlet
    {
        type            inletOutlet;
        inletValue      uniform 5e-07;
        value           nonuniform List<scalar> 
32
(
4.6190547e-08
2.065463e-07
7.0656887e-07
1.7078651e-06
5.1175781e-06
1.426615e-05
3.539064e-05
8.3101968e-05
0.00017361243
0.00031923596
0.00069101852
0.0016854487
0.0039712556
0.0075126834
0.010964087
0.011897996
0.011897956
0.010964017
0.0075125831
0.003971149
0.0016853847
0.00069102934
0.00031928819
0.00017364268
8.310397e-05
3.5390504e-05
1.4265491e-05
5.1169878e-06
1.707757e-06
7.0657642e-07
2.0654874e-07
4.6192615e-08
)
;
    }
    bottom
    {
        type            fixedValue;
        value           uniform 0;
    }
    top
    {
        type            fixedValue;
        value           uniform 0;
    }
}


// ************************************************************************* //
