/*--------------------------------*- C++ -*----------------------------------*\
| =========                 |                                                 |
| \\      /  F ield         | OpenFOAM: The Open Source CFD Toolbox           |
|  \\    /   O peration     | Version:  2206                                  |
|   \\  /    A nd           | Website:  www.openfoam.com                      |
|    \\/     M anipulation  |                                                 |
\*---------------------------------------------------------------------------*/
FoamFile
{
    version     2.0;
    format      ascii;
    arch        "LSB;label=32;scalar=64";
    class       surfaceScalarField;
    location    "5000";
    object      phi;
}
// * * * * * * * * * * * * * * * * * * * * * * * * * * * * * * * * * * * * * //

dimensions      [0 3 -1 0 0 0 0];

oriented        oriented;

internalField   nonuniform List<scalar> 
598
(
9.5410854e-06
3.8903051e-07
2.9269117e-05
3.9848286e-06
7.013295e-05
1.5761777e-05
0.00015891917
4.643198e-05
0.0003524575
0.00012934311
0.00076901039
0.00035437938
0.0016506334
0.00095875519
0.0034683677
0.0025736477
0.007101222
0.0068342402
0.014171024
0.017814964
0.027424157
0.045548427
0.050373858
0.11401325
0.083477575
0.2755113
0.11219962
0.61757506
0.094224054
1.1856747
1.140296e-06
1.7329443
-0.094221963
1.7329445
-0.11219796
1.1856751
-0.08347648
0.61757563
-0.050373366
0.2755119
-0.027424103
0.11401369
-0.014171143
0.045548599
-0.0071013323
0.017814957
-0.0034684117
0.0068341741
-0.0016506353
0.0025736062
-0.00076900713
0.00095874948
-0.0003524553
0.00035438104
-0.00015891867
0.00012934424
-7.0132997e-05
4.6432738e-05
-2.9269376e-05
1.5761949e-05
-9.541358e-06
3.9847928e-06
3.8904816e-07
-7.0106627e-09
3.9603691e-07
-5.7436786e-08
4.0352996e-06
8.3524421e-08
1.5620763e-05
6.7309226e-07
4.584251e-05
1.697229e-06
0.00012831902
3.8109801e-07
0.00035569557
-1.2133482e-05
0.00097126976
-5.0570108e-05
0.0026120843
-0.00013771264
0.0069213827
-0.00026686729
0.017944119
-0.00035586214
0.045637421
-0.00027717133
0.11393456
0.00016971794
0.27506441
0.0011598677
0.61658491
0.0019412037
1.1848933
5.0105343e-07
1.734885
-0.0019402995
1.7348852
-0.001159026
1.1848938
-0.00016892385
0.61658553
0.00027778308
0.27506519
0.00035622171
0.11393525
0.00026702331
0.045637797
0.00013774771
0.017944232
5.056713e-05
0.0069213545
1.2122633e-05
0.0026120505
-3.8726084e-07
0.00097125928
-1.6985503e-06
0.00035569227
-6.7307361e-07
0.0001283188
-8.3398211e-08
4.5843145e-05
5.7478969e-08
1.5621019e-05
6.9908769e-09
4.0353604e-06
3.9606236e-07
-3.5580242e-09
3.9959973e-07
-3.8906338e-08
4.0706742e-06
-1.3874063e-07
1.5720667e-05
-3.9703353e-07
4.6100761e-05
-1.0523442e-06
0.00012897434
-2.7281724e-06
0.00035737136
-7.2828625e-06
0.00097582447
-1.9336236e-05
0.0026241377
-5.2431067e-05
0.0069544776
-0.00014156896
0.018033256
-0.00036366678
0.045859519
-0.00086441313
0.11443531
-0.0018107432
0.27601074
-0.002993376
0.61776754
-0.0029198192
1.1848198
6.0770733e-08
1.7319651
0.0029198802
1.7319654
0.0029933664
1.1848203
0.0018106995
0.6177682
0.00086436658
0.27601153
0.00036363934
0.11443598
0.00014156151
0.045859875
5.2434436e-05
0.018033359
1.9339602e-05
0.0069544495
7.2837618e-06
0.0026241064
2.7284202e-06
0.00097581476
1.0524142e-06
0.00035736836
3.9701743e-07
0.00012897418
1.3882212e-07
4.6101395e-05
3.8950438e-08
1.5720921e-05
3.5635566e-09
4.0707345e-06
3.9962501e-07
-3.7649288e-10
3.9995769e-07
-4.0546142e-09
4.0743256e-06
-1.4676148e-08
1.5731331e-05
-4.2181429e-08
4.6128302e-05
-1.0906602e-07
0.00012904119
-2.7389026e-07
0.00035753606
-7.3674378e-07
0.00097628735
-1.9845925e-06
0.0026253855
-5.200271e-06
0.0069576933
-1.3670771e-05
0.018041727
-3.6178481e-05
0.045882027
-9.5818841e-05
0.11449495
-0.00025211365
0.27616703
-0.00060114134
0.61811657
-0.00090320332
1.1851218
-6.4199211e-08
1.7310619
0.00090307864
1.7310623
0.00060103351
1.1851224
0.00025203143
0.6181172
9.5769652e-05
0.27616779
3.6159661e-05
0.11449559
1.3669118e-05
0.045882366
5.2038342e-06
0.018041824
1.986709e-06
0.0069576666
7.3729763e-07
0.0026253559
2.7392791e-07
0.00097627813
1.0905395e-07
0.00035753322
4.2138488e-08
0.00012904105
1.4623595e-08
4.6128918e-05
4.0056346e-09
1.5731576e-05
3.4398798e-10
4.0743839e-06
3.9998283e-07
-3.921293e-10
4.0037544e-07
-4.4986532e-09
4.078408e-06
-1.5779614e-08
1.5742632e-05
-4.5226174e-08
4.6157799e-05
-1.2426124e-07
0.00012912025
-3.3706496e-07
0.00035774889
-9.1720726e-07
0.00097686752
-2.4693426e-06
0.0026269376
-6.40461e-06
0.0069616285
-1.6105996e-05
0.018051428
-3.9823904e-05
0.045905745
-9.5398541e-05
0.11455052
-0.00021201335
0.27628365
-0.00039715972
0.61830172
-0.00047482137
1.1851995
-8.9466406e-08
1.7305872
0.00047466028
1.7305875
0.00039702368
1.1852
0.00021190777
0.61830231
9.5336536e-05
0.27628436
3.9801454e-05
0.11455113
1.6104575e-05
0.045906063
6.4090961e-06
0.01805152
2.4720435e-06
0.0069616036
9.1800389e-07
0.00262691
3.3731059e-07
0.00097685888
1.2423309e-07
0.00035774626
4.5176998e-08
0.00012912012
1.573946e-08
4.6158386e-05
4.5019865e-09
1.5742865e-05
4.1240883e-10
4.0784635e-06
4.0040047e-07
1.675506e-10
4.0021071e-07
2.6237834e-09
4.0759714e-06
1.2285391e-08
1.5732973e-05
3.4678549e-08
4.6135416e-05
4.7666126e-08
0.00012910729
-3.0992333e-08
0.00035782755
-2.5781818e-07
0.00097709437
-1.065476e-06
0.0026277453
-1.2315628e-06
0.0069617946
4.2988503e-06
0.018045898
2.1480987e-05
0.045888563
5.7409021e-05
0.11451459
0.00011513058
0.27622592
0.00018471349
0.61823213
0.0001867998
1.1851974
-7.1718986e-08
1.7307741
-0.00018692872
1.7307744
-0.00018481409
1.1851979
-0.00011519516
0.6182327
-5.7436339e-05
0.2762266
-2.1481989e-05
0.11451517
-4.2913934e-06
0.045888872
1.2365075e-06
0.018045992
1.0668231e-06
0.0069617733
2.5810355e-07
0.0026277187
3.0947126e-08
0.00097708601
-4.7786824e-08
0.000357825
-3.4756068e-08
0.00012910712
-1.233003e-08
4.6135967e-05
-2.6554033e-09
1.5733191e-05
-1.762745e-10
4.0760238e-06
4.0023585e-07
1.5263999e-10
4.0004833e-07
2.8349362e-09
4.0733293e-06
1.4582782e-08
1.5721256e-05
4.0758837e-08
4.6109229e-05
3.7515447e-08
0.00012911054
-1.4444376e-07
0.00035800948
-6.5229234e-07
0.00097760221
-2.3172164e-06
0.0026294103
-3.4540749e-06
0.0069629315
2.8207635e-06
0.018039623
2.2715418e-05
0.045868668
6.0238252e-05
0.11447707
0.00010684965
0.27617931
0.0001443239
0.61819466
0.00013053516
1.1852112
-4.8509982e-08
1.7309047
-0.00013062428
1.730905
-0.00014439209
1.1852117
-0.00010688688
0.61819519
-6.024609e-05
0.27617996
-2.2705926e-05
0.11447763
-2.8096599e-06
0.045868976
3.4589759e-06
0.018039723
2.3179896e-06
0.0069629143
6.5233033e-07
0.0026293843
1.4428897e-07
0.00097759403
-3.7608434e-08
0.00035800695
-4.0792839e-08
0.00012911031
-1.4586432e-08
4.6109747e-05
-2.8577856e-09
1.572146e-05
-1.6469356e-10
4.0733787e-06
4.000737e-07
1.5472291e-10
3.9991519e-07
2.3335991e-09
4.0711272e-06
1.3272875e-08
1.5710318e-05
3.6828674e-08
4.6085668e-05
1.6971799e-08
0.00012913039
-2.2536662e-07
0.00035825182
-8.903874e-07
0.00097826723
-3.0184676e-06
0.0026315384
-4.7099669e-06
0.006964623
1.295295e-06
0.018033618
2.0098869e-05
0.045849865
5.2919018e-05
0.11444425
8.6885448e-05
0.27614535
0.00010646392
0.61817508
9.4085174e-05
1.1852236
-7.6331769e-08
1.7309988
-9.422623e-05
1.7309991
-0.00010657748
1.185224
-8.6958663e-05
0.61817557
-5.2949342e-05
0.27614595
-2.0098871e-05
0.11444478
-1.2862159e-06
0.045850163
4.7160875e-06
0.018033721
3.0204026e-06
0.00696461
8.9088927e-07
0.0026315138
2.2538872e-07
0.00097825953
-1.7095378e-08
0.00035824944
-3.6868918e-08
0.00012913012
-1.3288107e-08
4.608615e-05
-2.3406904e-09
1.5710507e-05
-1.3964544e-10
4.071173e-06
3.9994059e-07
1.5453223e-10
3.9976101e-07
2.4734408e-09
4.0688335e-06
1.3629554e-08
1.5699136e-05
3.7659425e-08
4.6061643e-05
1.976807e-08
0.00012914829
-2.0818546e-07
0.00035847978
-8.3087192e-07
0.0009788899
-2.8658419e-06
0.0026335733
-4.1707725e-06
0.0069659279
2.6758449e-06
0.018026771
2.2850529e-05
0.04582969
5.9625553e-05
0.11440748
0.00010951466
0.27609546
0.00017146049
0.61811314
0.00019518652
1.1851999
-1.0309772e-07
1.7311941
-0.00019537456
1.7311944
-0.0001716053
1.1852002
-0.00010960703
0.61811357
-5.9667852e-05
0.27609601
-2.2857385e-05
0.11440797
-2.6699037e-06
0.045829975
4.1763246e-06
0.018026875
2.8681096e-06
0.0069659182
8.3163989e-07
0.0026335502
2.0835267e-07
0.0009788828
-1.9837073e-08
0.00035847762
-3.7742208e-08
0.00012914802
-1.3658596e-08
4.6062104e-05
-2.4775783e-09
1.5699317e-05
-1.603663e-10
4.0688768e-06
3.9978616e-07
1.3042336e-10
2.1450332e-09
1.2170529e-08
3.3499934e-08
1.7696773e-08
-1.7911267e-07
-7.1802424e-07
-2.51135e-06
-3.5497519e-06
2.7789445e-06
2.0950045e-05
5.5023467e-05
0.00010869054
0.00019314581
0.00024365812
-7.5735288e-08
-0.00024379358
-0.0001932386
-0.00010873918
-5.5040255e-05
-2.0949096e-05
-2.7741994e-06
3.5523759e-06
2.5121745e-06
7.1851578e-07
1.7923582e-07
-1.7701976e-08
-3.3533613e-08
-1.2183884e-08
-2.1672835e-09
-1.3733198e-10
)
;

boundaryField
{
    frontAndBack
    {
        type            empty;
        value           nonuniform List<scalar> 0();
    }
    frontAndBack
    {
        type            empty;
        value           nonuniform List<scalar> 0();
    }
    inlet
    {
        type            calculated;
        value           nonuniform List<scalar> 
32
(
-9.9301077e-06
-2.3712905e-05
-5.6625627e-05
-0.00013521823
-0.00032288138
-0.00077093229
-0.0018403782
-0.0043913819
-0.010467095
-0.024884766
-0.058801559
-0.13696295
-0.30861501
-0.64629711
-1.1676991
-1.6387213
-1.6387213
-1.1676991
-0.64629711
-0.30861501
-0.13696295
-0.058801559
-0.024884766
-0.010467094
-0.0043913824
-0.0018403776
-0.0007709328
-0.0003228808
-0.0001352184
-5.66256e-05
-2.37128e-05
-9.9304e-06
)
;
    }
    outlet
    {
        type            calculated;
        value           nonuniform List<scalar> 
32
(
3.996281e-07
4.0667976e-06
1.5689114e-05
4.6040313e-05
0.00012916409
0.00035867658
0.00097942885
0.0026353666
0.0069669663
0.018020443
0.045811519
0.1143734
0.27604179
0.61802868
1.1851493
1.7314379
1.7314381
1.1851497
0.61802907
0.27604231
0.11437388
0.045811801
0.018020548
0.0069669584
0.0026353439
0.00097942207
0.00035867458
0.00012916384
4.6040777e-05
1.5689299e-05
4.0668411e-06
3.9965291e-07
)
;
    }
    bottom
    {
        type            calculated;
        value           uniform 0;
    }
    top
    {
        type            calculated;
        value           uniform 0;
    }
}


// ************************************************************************* //
