/*--------------------------------*- C++ -*----------------------------------*\
| =========                 |                                                 |
| \\      /  F ield         | OpenFOAM: The Open Source CFD Toolbox           |
|  \\    /   O peration     | Version:  2206                                  |
|   \\  /    A nd           | Website:  www.openfoam.com                      |
|    \\/     M anipulation  |                                                 |
\*---------------------------------------------------------------------------*/
FoamFile
{
    version     2.0;
    format      ascii;
    arch        "LSB;label=32;scalar=64";
    class       volVectorField;
    location    "5000";
    object      U;
}
// * * * * * * * * * * * * * * * * * * * * * * * * * * * * * * * * * * * * * //

dimensions      [0 1 -1 0 0 0 0];

internalField   nonuniform List<vector> 
320
(
(0.31073303 0 -5.7574511e-07)
(1.3396869 0 9.3030368e-07)
(2.2613823 0 9.0603673e-07)
(2.7977914 0 1.7971291e-06)
(3.2467529 0 4.2966326e-06)
(3.6813772 0 9.3689943e-06)
(4.133157 0 2.0436678e-05)
(4.6402769 0 4.5055519e-05)
(5.1818231 0 9.4361713e-05)
(5.7134881 0 0.0001882174)
(6.2118736 0 0.00035762525)
(6.6840349 0 0.0006415758)
(7.1524877 0 0.0010883711)
(7.6064774 0 0.001613983)
(7.984764 0 0.0017896744)
(8.200917 0 0.0008850342)
(8.2009177 0 -0.00088499286)
(7.9847671 0 -0.0017896345)
(7.6064844 0 -0.001613949)
(7.1524989 0 -0.0010883577)
(6.6840449 0 -0.00064158602)
(6.2118669 0 -0.00035764028)
(5.7134432 0 -0.00018822469)
(5.181743 0 -9.4365163e-05)
(4.6401908 0 -4.5052468e-05)
(4.1331572 0 -2.0433821e-05)
(3.6814463 0 -9.3690968e-06)
(3.2468218 0 -4.2968093e-06)
(2.7978403 0 -1.7976259e-06)
(2.261396 0 -9.0654939e-07)
(1.3396482 0 -9.305407e-07)
(0.31073167 0 5.7597287e-07)
(0.31609626 0 3.5165369e-07)
(1.3490261 0 -3.9955617e-07)
(2.192223 0 1.9716804e-07)
(2.6963695 0 5.7553782e-08)
(3.1626733 0 -4.0859094e-07)
(3.6734022 0 -6.8417531e-07)
(4.2020155 0 -9.0098014e-07)
(4.7364952 0 -1.7420207e-06)
(5.2642285 0 -2.9534374e-06)
(5.7391574 0 -4.7747112e-06)
(6.1780467 0 -8.7490748e-06)
(6.6256964 0 -1.3274241e-05)
(7.1076132 0 -1.0690481e-05)
(7.6227217 0 2.0263636e-05)
(8.1275251 0 9.4595623e-05)
(8.4947867 0 9.0507786e-05)
(8.4947878 0 -9.0481507e-05)
(8.127528 0 -9.4569671e-05)
(7.6227287 0 -2.0237018e-05)
(7.1076332 0 1.0710635e-05)
(6.6257375 0 1.328578e-05)
(6.1781 0 8.7547643e-06)
(5.7391973 0 4.7780046e-06)
(5.2642077 0 2.9572933e-06)
(4.7364292 0 1.7440962e-06)
(4.2019683 0 9.0207474e-07)
(3.6733629 0 6.8518251e-07)
(3.1626718 0 4.0894287e-07)
(2.6964032 0 -5.7947293e-08)
(2.1922601 0 -1.9665975e-07)
(1.3490525 0 3.9977644e-07)
(0.31610761 0 -3.5245787e-07)
(0.32202289 0 -1.0212699e-07)
(1.3737448 0 1.1920297e-07)
(2.2215428 0 -5.7972043e-08)
(2.7280502 0 -5.2777455e-08)
(3.1960267 0 8.9485052e-08)
(3.7087493 0 1.8952363e-07)
(4.2421055 0 2.5521439e-07)
(4.7807103 0 3.2514413e-07)
(5.3159585 0 -2.4212958e-08)
(5.7985845 0 -1.1100194e-06)
(6.2406853 0 -3.4251811e-06)
(6.6858791 0 -9.154481e-06)
(7.1574035 0 -2.2201439e-05)
(7.6523114 0 -4.2733355e-05)
(8.1299972 0 -5.4151063e-05)
(8.4783189 0 -2.4104045e-05)
(8.4783206 0 2.4109215e-05)
(8.1300011 0 5.4154385e-05)
(7.6523195 0 4.2734713e-05)
(7.1574241 0 2.2201973e-05)
(6.6859189 0 9.1552864e-06)
(6.2407341 0 3.4261428e-06)
(5.7986175 0 1.1107081e-06)
(5.3159364 0 2.4765933e-08)
(4.7806523 0 -3.244242e-07)
(4.2420642 0 -2.5465361e-07)
(3.7087154 0 -1.891323e-07)
(3.1960288 0 -8.923484e-08)
(2.7280847 0 5.2748764e-08)
(2.2215802 0 5.7858672e-08)
(1.3737715 0 -1.1900449e-07)
(0.32203376 0 1.0195402e-07)
(0.32183682 0 -5.3712951e-08)
(1.3728943 0 6.1938948e-08)
(2.2204512 0 -3.0043842e-08)
(2.7269263 0 -1.9013478e-08)
(3.1951436 0 5.6275165e-08)
(3.708173 0 1.0980464e-07)
(4.2415914 0 1.5126306e-07)
(4.7803597 0 2.286817e-07)
(5.3147077 0 2.1221936e-07)
(5.7962492 0 7.704312e-08)
(6.2379946 0 -9.3951029e-08)
(6.6830032 0 -5.9437682e-07)
(7.1536543 0 -2.2786933e-06)
(7.6447286 0 -6.9745991e-06)
(8.1112629 0 -1.4783044e-05)
(8.442123 0 -1.0494101e-05)
(8.4421248 0 1.0492907e-05)
(8.1112667 0 1.4781531e-05)
(7.6447366 0 6.9729681e-06)
(7.1536745 0 2.2788339e-06)
(6.6830421 0 5.9424278e-07)
(6.2380426 0 9.4292848e-08)
(5.7962822 0 -7.7033814e-08)
(5.3146872 0 -2.1202074e-07)
(4.780303 0 -2.2859694e-07)
(4.2415509 0 -1.512462e-07)
(3.7081396 0 -1.0971932e-07)
(3.1951454 0 -5.6190061e-08)
(2.7269599 0 1.9015888e-08)
(2.2204877 0 3.0008512e-08)
(1.3729205 0 -6.1882326e-08)
(0.32184771 0 5.3662215e-08)
(0.32259955 0 -2.4267308e-08)
(1.3762082 0 2.7887835e-08)
(2.2245552 0 -1.3707801e-08)
(2.7313079 0 -8.1683003e-09)
(3.1993364 0 2.5033527e-08)
(3.7121588 0 4.7500243e-08)
(4.2461078 0 5.9710989e-08)
(4.785205 0 8.2309297e-08)
(5.3207634 0 4.5667944e-08)
(5.803808 0 -8.5339e-08)
(6.2463234 0 -3.1879482e-07)
(6.6916628 0 -8.9867541e-07)
(7.162524 0 -2.3077737e-06)
(7.6539145 0 -4.9187058e-06)
(8.1200378 0 -7.6490063e-06)
(8.4482828 0 -4.9839974e-06)
(8.4482844 0 4.981203e-06)
(8.1200415 0 7.6461891e-06)
(7.6539221 0 4.9159652e-06)
(7.162543 0 2.3057949e-06)
(6.691699 0 9.0015121e-07)
(6.2463676 0 3.1860339e-07)
(5.8038375 0 8.4633103e-08)
(5.3207433 0 -4.5812531e-08)
(4.7851529 0 -8.2350091e-08)
(4.2460707 0 -5.9772078e-08)
(3.7121285 0 -4.7031122e-08)
(3.1993391 0 -2.5060458e-08)
(2.7313402 0 8.0319901e-09)
(2.2245902 0 1.3666162e-08)
(1.3762335 0 -2.7867699e-08)
(0.3226102 0 2.4253958e-08)
(0.32250999 0 -1.6821725e-08)
(1.375649 0 1.9738494e-08)
(2.2236448 0 -9.4528262e-09)
(2.7304172 0 -7.4413189e-09)
(3.1990633 0 1.761022e-08)
(3.7125952 0 3.7743264e-08)
(4.2466481 0 5.3380943e-08)
(4.786045 0 7.6510053e-08)
(5.3207875 0 7.8662674e-08)
(5.8026164 0 7.3679188e-08)
(6.2447311 0 1.9742206e-07)
(6.6901837 0 6.5943506e-07)
(7.1614345 0 1.7245927e-06)
(7.6534053 0 3.0796499e-06)
(8.1205284 0 3.6160804e-06)
(8.449833 0 1.6922086e-06)
(8.4498346 0 -1.6950107e-06)
(8.1205318 0 -3.6186342e-06)
(7.6534124 0 -3.0809554e-06)
(7.1614524 0 -1.7253534e-06)
(6.690218 0 -6.5947951e-07)
(6.2447734 0 -1.9729272e-07)
(5.8026457 0 -7.3616689e-08)
(5.3207697 0 -7.8646159e-08)
(4.7859954 0 -7.64998e-08)
(4.2466126 0 -5.3367641e-08)
(3.7125661 0 -3.7736998e-08)
(3.1990653 0 -1.7599448e-08)
(2.7304475 0 7.4436594e-09)
(2.2236777 0 9.4487905e-09)
(1.3756733 0 -1.9735165e-08)
(0.32252066 0 1.6817828e-08)
(0.32233411 0 -2.2917812e-08)
(1.3745641 0 2.6867493e-08)
(2.2218259 0 -1.295059e-08)
(2.7286593 0 -1.0662974e-08)
(3.1986941 0 2.3825028e-08)
(3.7137909 0 5.0815394e-08)
(4.2480792 0 7.1538844e-08)
(4.7881459 0 9.7697468e-08)
(5.3210131 0 8.5878788e-08)
(5.8002437 0 5.0785017e-08)
(6.24163 0 1.7046665e-07)
(6.6874216 0 6.8211799e-07)
(7.1594204 0 1.801354e-06)
(7.6519292 0 2.9730556e-06)
(8.1194821 0 3.266973e-06)
(8.4493133 0 1.6214064e-06)
(8.4493148 0 -1.623545e-06)
(8.1194853 0 -3.268842e-06)
(7.6519359 0 -2.9741973e-06)
(7.1594375 0 -1.8016431e-06)
(6.6874547 0 -6.8180683e-07)
(6.2416718 0 -1.7034069e-07)
(5.8002748 0 -5.0915718e-08)
(5.3209985 0 -8.5724442e-08)
(4.7880976 0 -9.6966877e-08)
(4.2480446 0 -7.1821161e-08)
(3.7137622 0 -5.1155743e-08)
(3.1986947 0 -2.3864506e-08)
(2.7286874 0 1.0667269e-08)
(2.2218567 0 1.2953055e-08)
(1.3745873 0 -2.6869109e-08)
(0.32234497 0 2.2917478e-08)
(0.32224836 0 -2.7993101e-08)
(1.3738663 0 3.569243e-08)
(2.2203341 0 -1.6151873e-08)
(2.7273186 0 -1.3411456e-08)
(3.1992242 0 3.0343694e-08)
(3.7163705 0 6.4004142e-08)
(4.2510619 0 8.8984177e-08)
(4.7921083 0 1.1673059e-07)
(5.3225189 0 9.6186606e-08)
(5.798569 0 4.0614108e-08)
(6.2392894 0 1.4507947e-07)
(6.685731 0 6.419898e-07)
(7.1588429 0 1.6576092e-06)
(7.652064 0 2.5788857e-06)
(8.1198881 0 2.6350225e-06)
(8.4498593 0 1.2584421e-06)
(8.4498608 0 -1.261664e-06)
(8.1198913 0 -2.6379574e-06)
(7.6520704 0 -2.5810271e-06)
(7.1588593 0 -1.6586545e-06)
(6.6857632 0 -6.4212176e-07)
(6.2393312 0 -1.4523796e-07)
(5.7986023 0 -3.9597218e-08)
(5.3225075 0 -9.6566232e-08)
(4.792061 0 -1.1752003e-07)
(4.251028 0 -8.9237563e-08)
(3.716342 0 -6.3638019e-08)
(3.1992235 0 -3.0572468e-08)
(2.7273448 0 1.298876e-08)
(2.2203631 0 1.6304838e-08)
(1.3738885 0 -3.3647723e-08)
(0.3222594 0 2.8893615e-08)
(0.32210614 0 -3.2384651e-08)
(1.372996 0 3.3698835e-08)
(2.2185681 0 -1.7814692e-08)
(2.7257202 0 -1.2382553e-08)
(3.1997249 0 3.4558564e-08)
(3.7190767 0 6.8466161e-08)
(4.2541537 8.3082027e-28 9.8114544e-08)
(4.796297 -1.6205327e-27 1.3044397e-07)
(5.3237143 7.1085025e-28 1.1372735e-07)
(5.7961599 0 6.7941179e-08)
(6.2362359 0 1.833876e-07)
(6.6833937 0 6.6207177e-07)
(7.1576115 0 1.6272436e-06)
(7.6515578 0 2.760411e-06)
(8.1199811 0 3.3607334e-06)
(8.4507998 0 1.8207973e-06)
(8.4508012 0 -1.8243849e-06)
(8.119984 0 -3.3638802e-06)
(7.6515635 0 -2.7626535e-06)
(7.1576262 0 -1.6282915e-06)
(6.683423 0 -6.6207019e-07)
(6.236275 0 -1.8306983e-07)
(5.7961928 0 -6.9028294e-08)
(5.3237065 0 -1.1368326e-07)
(4.7962541 0 -1.3057257e-07)
(4.2541236 0 -9.7542139e-08)
(3.7190511 0 -6.8572505e-08)
(3.1997237 0 -3.4242663e-08)
(2.7257439 0 1.2910699e-08)
(2.2185946 0 1.7647429e-08)
(1.3730166 0 -3.6210906e-08)
(0.32211703 0 3.13319e-08)
(0.32195268 0 -1.6220403e-08)
(1.3720116 -3.2131393e-30 2.0231683e-08)
(2.2165391 2.165244e-30 -9.8485449e-09)
(2.7239117 -1.4100986e-29 -4.5478243e-09)
(3.200286 -1.5492272e-29 1.9017998e-08)
(3.7220037 3.1669977e-28 3.6989386e-08)
(4.2575119 -2.5146485e-36 4.9741242e-08)
(4.8009805 2.8515439e-28 7.0990557e-08)
(5.3248549 -4.9625798e-28 6.3414446e-08)
(5.7932504 0 4.8145815e-08)
(6.2327072 -1.289847e-26 9.8278998e-08)
(6.6805772 6.5853402e-34 2.974276e-07)
(7.1557098 -1.5628099e-26 7.0398891e-07)
(7.6502842 3.6026425e-26 1.2494806e-06)
(8.1199644 0 1.6826863e-06)
(8.4532785 0 9.8688344e-07)
(8.4532798 0 -9.8794975e-07)
(8.1199668 0 -1.6824983e-06)
(7.650289 0 -1.2511181e-06)
(7.1557233 0 -7.049721e-07)
(6.680605 0 -3.0121085e-07)
(6.2327456 0 -9.7730844e-08)
(5.7932844 0 -4.5233542e-08)
(5.3248489 0 -6.2982264e-08)
(4.8009385 0 -7.1407919e-08)
(4.2574837 0 -5.3153329e-08)
(3.7219805 0 -3.6921744e-08)
(3.2002856 0 -1.920824e-08)
(2.7239356 0 6.3117188e-09)
(2.2165663 0 9.6265935e-09)
(1.3720324 0 -1.9531153e-08)
(0.32196319 0 1.7005453e-08)
)
;

boundaryField
{
    frontAndBack
    {
        type            empty;
    }
    frontAndBack
    {
        type            empty;
    }
    inlet
    {
        type            fixedValue;
        value           uniform (8 0 0);
    }
    outlet
    {
        type            zeroGradient;
    }
    bottom
    {
        type            noSlip;
    }
    top
    {
        type            noSlip;
    }
}


// ************************************************************************* //
