/*--------------------------------*- C++ -*----------------------------------*\
| =========                 |                                                 |
| \\      /  F ield         | OpenFOAM: The Open Source CFD Toolbox           |
|  \\    /   O peration     | Version:  2206                                  |
|   \\  /    A nd           | Website:  www.openfoam.com                      |
|    \\/     M anipulation  |                                                 |
\*---------------------------------------------------------------------------*/
FoamFile
{
    version     2.0;
    format      ascii;
    arch        "LSB;label=32;scalar=64";
    class       volVectorField;
    location    "5000";
    object      wallShearStress;
}
// * * * * * * * * * * * * * * * * * * * * * * * * * * * * * * * * * * * * * //

dimensions      [0 2 -2 0 0 0 0];

internalField   uniform (0 0 0);

boundaryField
{
    frontAndBack
    {
        type            empty;
    }
    frontAndBack
    {
        type            empty;
    }
    inlet
    {
        type            calculated;
        value           uniform (0 0 0);
    }
    outlet
    {
        type            calculated;
        value           uniform (0 0 0);
    }
    bottom
    {
        type            calculated;
        value           nonuniform List<vector> 
10
(
(-0.050067216 0 1.154911e-07) 
(-0.050931374 0 -7.5541453e-08) 
(-0.051886308 0 2.1943499e-08) 
(-0.051856327 0 1.1539722e-08) 
(-0.051979223 0 5.2138228e-09) 
(-0.051964792 0 3.6137515e-09) 
(-0.051936454 0 4.9234054e-09) 
(-0.051922637 0 6.0137798e-09) 
(-0.051899721 0 6.9572424e-09) 
(-0.051874996 0 3.4846672e-09)
)
;
    }
    top
    {
        type            calculated;
        value           nonuniform List<vector> 10((-0.050065523 0 -1.1553639e-07) (-0.050931703 0 7.5711981e-08) (-0.051886532 0 -2.1905695e-08) (-0.051856556 0 -1.1528483e-08) (-0.051979409 0 -5.2108012e-09) (-0.051964983 0 -3.6128079e-09) (-0.051936675 0 -4.923189e-09) (-0.051922887 0 -6.2070588e-09) (-0.051899949 0 -6.7308765e-09) (-0.051875162 0 -3.6532155e-09));
    }
}


// ************************************************************************* //
