/*--------------------------------*- C++ -*----------------------------------*\
| =========                 |                                                 |
| \\      /  F ield         | OpenFOAM: The Open Source CFD Toolbox           |
|  \\    /   O peration     | Version:  2112                                  |
|   \\  /    A nd           | Website:  www.openfoam.com                      |
|    \\/     M anipulation  |                                                 |
\*---------------------------------------------------------------------------*/
FoamFile
{
    version     2.0;
    format      ascii;
    arch        "LSB;label=32;scalar=64";
    class       volVectorField;
    location    "5000";
    object      wallShearStress;
}
// * * * * * * * * * * * * * * * * * * * * * * * * * * * * * * * * * * * * * //

dimensions      [0 2 -2 0 0 0 0];

internalField   uniform (0 0 0);

boundaryField
{
    frontAndBack
    {
        type            empty;
    }
    frontAndBack
    {
        type            empty;
    }
    inlet
    {
        type            calculated;
        value           uniform (0 0 0);
    }
    outlet
    {
        type            calculated;
        value           uniform (0 0 0);
    }
    bottom
    {
        type            calculated;
        value           nonuniform List<vector> 
10
(
(-0.050067216 0 0.0025068187)
(-0.050931374 0 -7.5539113e-08)
(-0.051886308 0 0.0026922109)
(-0.051856327 0 1.1539553e-08)
(-0.051979223 0 0.0027018449)
(-0.051964792 0 3.61377e-09)
(-0.051936454 0 0.0026974002)
(-0.051922637 0 6.0137678e-09)
(-0.051899721 0 0.002693588)
(-0.051874996 0 3.484686e-09)
)
;
    }
    top
    {
        type            calculated;
        value           nonuniform List<vector> 10((-0.050065523 0 -0.0025066492) (-0.050931703 0 7.5709491e-08) (-0.051886532 0 -0.0026922342) (-0.051856556 0 -1.152823e-08) (-0.051979409 0 -0.0027018642) (-0.051964983 0 -3.6127812e-09) (-0.051936675 0 -0.0026974231) (-0.051922887 0 -6.2070449e-09) (-0.051899949 0 -0.0026936114) (-0.051875162 0 -3.6532128e-09));
    }
}


// ************************************************************************* //
