/*--------------------------------*- C++ -*----------------------------------*\
| =========                 |                                                 |
| \\      /  F ield         | OpenFOAM: The Open Source CFD Toolbox           |
|  \\    /   O peration     | Version:  2112                                  |
|   \\  /    A nd           | Website:  www.openfoam.com                      |
|    \\/     M anipulation  |                                                 |
\*---------------------------------------------------------------------------*/
FoamFile
{
    version     2.0;
    format      ascii;
    arch        "LSB;label=32;scalar=64";
    class       volVectorField;
    location    "4416";
    object      C;
}
// * * * * * * * * * * * * * * * * * * * * * * * * * * * * * * * * * * * * * //

dimensions      [0 1 0 0 0 0 0];

internalField   nonuniform List<vector> 
81920
(
(1.953125 -0.5 2.5e-08)
(1.953125 -0.5 7.6397755e-08)
(1.953125 -0.5 1.3066917e-07)
(1.953125 -0.5 1.8797491e-07)
(1.953125 -0.5 2.4848463e-07)
(1.953125 -0.5 3.1237746e-07)
(1.953125 -0.5 3.7984255e-07)
(1.953125 -0.5 4.5107962e-07)
(1.953125 -0.5 5.2629957e-07)
(1.953125 -0.5 6.0572508e-07)
(1.953125 -0.5 6.8959129e-07)
(1.953125 -0.5 7.7814646e-07)
(1.953125 -0.5 8.7165277e-07)
(1.953125 -0.5 9.7038703e-07)
(1.953125 -0.5 1.0746415e-06)
(1.953125 -0.5 1.1847249e-06)
(1.953125 -0.5 1.3009631e-06)
(1.953125 -0.5 1.4237001e-06)
(1.953125 -0.5 1.5532994e-06)
(1.953125 -0.5 1.6901446e-06)
(1.953125 -0.5 1.8346408e-06)
(1.953125 -0.5 1.9872157e-06)
(1.953125 -0.5 2.1483212e-06)
(1.953125 -0.5 2.318434e-06)
(1.953125 -0.5 2.4980579e-06)
(1.953125 -0.5 2.6877245e-06)
(1.953125 -0.5 2.8879954e-06)
(1.953125 -0.5 3.0994633e-06)
(1.953125 -0.5 3.3227545e-06)
(1.953125 -0.5 3.5585298e-06)
(1.953125 -0.5 3.8074872e-06)
(1.953125 -0.5 4.0703638e-06)
(1.953125 -0.5 4.3479378e-06)
(1.953125 -0.5 4.6410309e-06)
(1.953125 -0.5 4.9505107e-06)
(1.953125 -0.5 5.2772934e-06)
(1.953125 -0.5 5.6223464e-06)
(1.953125 -0.5 5.9866912e-06)
(1.953125 -0.5 6.3714064e-06)
(1.953125 -0.5 6.7776307e-06)
(1.953125 -0.5 7.2065669e-06)
(1.953125 -0.5 7.6594846e-06)
(1.953125 -0.5 8.1377247e-06)
(1.953125 -0.5 8.6427028e-06)
(1.953125 -0.5 9.1759138e-06)
(1.953125 -0.5 9.7389363e-06)
(1.953125 -0.5 1.0333437e-05)
(1.953125 -0.5 1.0961175e-05)
(1.953125 -0.5 1.162401e-05)
(1.953125 -0.5 1.2323903e-05)
(1.953125 -0.5 1.3062926e-05)
(1.953125 -0.5 1.3843267e-05)
(1.953125 -0.5 1.4667236e-05)
(1.953125 -0.5 1.5537272e-05)
(1.953125 -0.5 1.645595e-05)
(1.953125 -0.5 1.742599e-05)
(1.953125 -0.5 1.8450263e-05)
(1.953125 -0.5 1.9531801e-05)
(1.953125 -0.5 2.0673806e-05)
(1.953125 -0.5 2.1879658e-05)
(1.953125 -0.5 2.3152926e-05)
(1.953125 -0.5 2.449738e-05)
(1.953125 -0.5 2.5916999e-05)
(1.953125 -0.5 2.7415984e-05)
(1.953125 -0.5 2.8998774e-05)
(1.953125 -0.5 3.0670052e-05)
(1.953125 -0.5 3.2434766e-05)
(1.953125 -0.5 3.4298139e-05)
(1.953125 -0.5 3.6265686e-05)
(1.953125 -0.5 3.8343231e-05)
(1.953125 -0.5 4.0536923e-05)
(1.953125 -0.5 4.2853254e-05)
(1.953125 -0.5 4.5299081e-05)
(1.953125 -0.5 4.7881642e-05)
(1.953125 -0.5 5.060858e-05)
(1.953125 -0.5 5.3487965e-05)
(1.953125 -0.5 5.6528321e-05)
(1.953125 -0.5 5.9738643e-05)
(1.953125 -0.5 6.3128433e-05)
(1.953125 -0.5 6.6707723e-05)
(1.953125 -0.5 7.0487104e-05)
(1.953125 -0.5 7.447776e-05)
(1.953125 -0.5 7.8691501e-05)
(1.953125 -0.5 8.3140794e-05)
(1.953125 -0.5 8.7838807e-05)
(1.953125 -0.5 9.2799438e-05)
(1.953125 -0.5 9.8037367e-05)
(1.953125 -0.5 0.00010356809)
(1.953125 -0.5 0.00010940797)
(1.953125 -0.5 0.00011557429)
(1.953125 -0.5 0.00012208528)
(1.953125 -0.5 0.00012896022)
(1.953125 -0.5 0.00013621943)
(1.953125 -0.5 0.0001438844)
(1.953125 -0.5 0.00015197778)
(1.953125 -0.5 0.00016052353)
(1.953125 -0.5 0.00016954691)
(1.953125 -0.5 0.00017907462)
(1.953125 -0.5 0.00018913483)
(1.953125 -0.5 0.00019975729)
(1.953125 -0.5 0.0002109734)
(1.953125 -0.5 0.00022281635)
(1.953125 -0.5 0.00023532112)
(1.953125 -0.5 0.00024852471)
(1.953125 -0.5 0.00026246613)
(1.953125 -0.5 0.00027718661)
(1.953125 -0.5 0.00029272963)
(1.953125 -0.5 0.00030914115)
(1.953125 -0.5 0.00032646965)
(1.953125 -0.5 0.00034476635)
(1.953125 -0.5 0.00036408529)
(1.953125 -0.5 0.00038448355)
(1.953125 -0.5 0.00040602138)
(1.953125 -0.5 0.00042876239)
(1.953125 -0.5 0.00045277373)
(1.953125 -0.5 0.0004781263)
(1.953125 -0.5 0.00050489494)
(1.953125 -0.5 0.00053315867)
(1.953125 -0.5 0.0005630009)
(1.953125 -0.5 0.00059450968)
(1.953125 -0.5 0.00062777797)
(1.953125 -0.5 0.0006629039)
(1.953125 -0.5 0.00069999104)
(1.953125 -0.5 0.00073914875)
(1.953125 -0.5 0.00078049245)
(1.953125 -0.5 0.00082414397)
(1.953125 -0.5 0.00087023192)
(1.953125 -0.5 0.00091889205)
(1.953125 -0.5 0.00097026763)
(1.953125 -0.5 0.0010245099)
(1.953125 -0.5 0.0010817785)
(1.953125 -0.5 0.0011422418)
(1.953125 -0.5 0.0012060777)
(1.953125 -0.5 0.0012734739)
(1.953125 -0.5 0.0013446283)
(1.953125 -0.5 0.0014197499)
(1.953125 -0.5 0.0014990594)
(1.953125 -0.5 0.0015827894)
(1.953125 -0.5 0.0016711855)
(1.953125 -0.5 0.0017645069)
(1.953125 -0.5 0.0018630269)
(1.953125 -0.5 0.0019670342)
(1.953125 -0.5 0.0020768329)
(1.953125 -0.5 0.0021927443)
(1.953125 -0.5 0.0023151071)
(1.953125 -0.5 0.0024442787)
(1.953125 -0.5 0.0025806359)
(1.953125 -0.5 0.0027245765)
(1.953125 -0.5 0.0028765197)
(1.953125 -0.5 0.0030369078)
(1.953125 -0.5 0.0032062072)
(1.953125 -0.5 0.0033849097)
(1.953125 -0.5 0.003573534)
(1.953125 -0.5 0.0037726268)
(1.953125 -0.5 0.0039827645)
(1.953125 -0.5 0.0042045549)
(1.953125 -0.5 0.0044386383)
(1.953125 -0.5 0.0046856899)
(1.953125 -0.5 0.0049464211)
(1.953125 -0.5 0.0052215815)
(1.953125 -0.5 0.005511961)
(1.953125 -0.5 0.0058183916)
(1.953125 -0.5 0.0061417498)
(1.953125 -0.5 0.0064829586)
(1.953125 -0.5 0.0068429902)
(1.953125 -0.5 0.0072228679)
(1.953125 -0.5 0.0076236692)
(1.953125 -0.5 0.008046528)
(1.953125 -0.5 0.0084926377)
(1.953125 -0.5 0.008963254)
(1.953125 -0.5 0.0094596975)
(1.953125 -0.5 0.0099833574)
(1.953125 -0.5 0.010535694)
(1.953125 -0.5 0.011118243)
(1.953125 -0.5 0.011732618)
(1.953125 -0.5 0.012380515)
(1.953125 -0.5 0.013063713)
(1.953125 -0.5 0.013784083)
(1.953125 -0.5 0.014543588)
(1.953125 -0.5 0.015344287)
(1.953125 -0.5 0.016188342)
(1.953125 -0.5 0.017078017)
(1.953125 -0.5 0.018015689)
(1.953125 -0.5 0.019003845)
(1.953125 -0.5 0.020045091)
(1.953125 -0.5 0.021142155)
(1.953125 -0.5 0.022297891)
(1.953125 -0.5 0.023515285)
(1.953125 -0.5 0.024797455)
(1.953125 -0.5 0.026147659)
(1.953125 -0.5 0.027569298)
(1.953125 -0.5 0.02906592)
(1.953125 -0.5 0.030641223)
(1.953125 -0.5 0.032299059)
(1.953125 -0.5 0.034043437)
(1.953125 -0.5 0.035878526)
(1.953125 -0.5 0.037808657)
(1.953125 -0.5 0.039838326)
(1.953125 -0.5 0.041972195)
(1.953125 -0.5 0.044215091)
(1.953125 -0.5 0.04657201)
(1.953125 -0.5 0.049048112)
(1.953125 -0.5 0.051648723)
(1.953125 -0.5 0.05437933)
(1.953125 -0.5 0.057245579)
(1.953125 -0.5 0.060253268)
(1.953125 -0.5 0.063408345)
(1.953125 -0.5 0.066716894)
(1.953125 -0.5 0.070185131)
(1.953125 -0.5 0.073819391)
(1.953125 -0.5 0.077626115)
(1.953125 -0.5 0.081611834)
(1.953125 -0.5 0.085783154)
(1.953125 -0.5 0.090146736)
(1.953125 -0.5 0.094709273)
(1.953125 -0.5 0.099477468)
(1.953125 -0.5 0.104458)
(1.953125 -0.5 0.10965752)
(1.953125 -0.5 0.11508256)
(1.953125 -0.5 0.12073959)
(1.953125 -0.5 0.12663487)
(1.953125 -0.5 0.13277451)
(1.953125 -0.5 0.13916436)
(1.953125 -0.5 0.14581)
(1.953125 -0.5 0.15271667)
(1.953125 -0.5 0.15988922)
(1.953125 -0.5 0.16733208)
(1.953125 -0.5 0.17504919)
(1.953125 -0.5 0.18304393)
(1.953125 -0.5 0.19131909)
(1.953125 -0.5 0.19987679)
(1.953125 -0.5 0.20871844)
(1.953125 -0.5 0.21784468)
(1.953125 -0.5 0.22725533)
(1.953125 -0.5 0.23694931)
(1.953125 -0.5 0.24692463)
(1.953125 -0.5 0.25717832)
(1.953125 -0.5 0.26770639)
(1.953125 -0.5 0.27850383)
(1.953125 -0.5 0.28956451)
(1.953125 -0.5 0.30088124)
(1.953125 -0.5 0.31244569)
(1.953125 -0.5 0.32424843)
(1.953125 -0.5 0.33627893)
(1.953125 -0.5 0.34852554)
(1.953125 -0.5 0.36097554)
(1.953125 -0.5 0.3736152)
(1.953125 -0.5 0.38642977)
(1.953125 -0.5 0.39940358)
(1.953125 -0.5 0.41252009)
(1.953125 -0.5 0.42576196)
(1.953125 -0.5 0.43911117)
(1.953125 -0.5 0.45254906)
(1.953125 -0.5 0.46605647)
(1.953125 -0.5 0.47961382)
(1.953125 -0.5 0.49320126)
(1.953125 -0.5 0.50679874)
(1.953125 -0.5 0.52038618)
(1.953125 -0.5 0.53394354)
(1.953125 -0.5 0.54745094)
(1.953125 -0.5 0.56088883)
(1.953125 -0.5 0.57423804)
(1.953125 -0.5 0.58747991)
(1.953125 -0.5 0.60059642)
(1.953125 -0.5 0.61357023)
(1.953125 -0.5 0.6263848)
(1.953125 -0.5 0.63902446)
(1.953125 -0.5 0.65147446)
(1.953125 -0.5 0.66372107)
(1.953125 -0.5 0.67575157)
(1.953125 -0.5 0.68755431)
(1.953125 -0.5 0.69911876)
(1.953125 -0.5 0.71043549)
(1.953125 -0.5 0.72149617)
(1.953125 -0.5 0.73229361)
(1.953125 -0.5 0.74282168)
(1.953125 -0.5 0.75307537)
(1.953125 -0.5 0.76305069)
(1.953125 -0.5 0.77274467)
(1.953125 -0.5 0.78215532)
(1.953125 -0.5 0.79128156)
(1.953125 -0.5 0.80012321)
(1.953125 -0.5 0.80868091)
(1.953125 -0.5 0.81695607)
(1.953125 -0.5 0.82495081)
(1.953125 -0.5 0.83266792)
(1.953125 -0.5 0.84011078)
(1.953125 -0.5 0.84728333)
(1.953125 -0.5 0.85419)
(1.953125 -0.5 0.86083564)
(1.953125 -0.5 0.86722549)
(1.953125 -0.5 0.87336513)
(1.953125 -0.5 0.87926041)
(1.953125 -0.5 0.88491744)
(1.953125 -0.5 0.89034248)
(1.953125 -0.5 0.895542)
(1.953125 -0.5 0.90052253)
(1.953125 -0.5 0.90529073)
(1.953125 -0.5 0.90985326)
(1.953125 -0.5 0.91421685)
(1.953125 -0.5 0.91838817)
(1.953125 -0.5 0.92237389)
(1.953125 -0.5 0.92618061)
(1.953125 -0.5 0.92981487)
(1.953125 -0.5 0.93328311)
(1.953125 -0.5 0.93659166)
(1.953125 -0.5 0.93974673)
(1.953125 -0.5 0.94275442)
(1.953125 -0.5 0.94562067)
(1.953125 -0.5 0.94835128)
(1.953125 -0.5 0.95095189)
(1.953125 -0.5 0.95342799)
(1.953125 -0.5 0.95578491)
(1.953125 -0.5 0.9580278)
(1.953125 -0.5 0.96016167)
(1.953125 -0.5 0.96219134)
(1.953125 -0.5 0.96412147)
(1.953125 -0.5 0.96595656)
(1.953125 -0.5 0.96770094)
(1.953125 -0.5 0.96935878)
(1.953125 -0.5 0.97093408)
(1.953125 -0.5 0.9724307)
(1.953125 -0.5 0.97385234)
(1.953125 -0.5 0.97520255)
(1.953125 -0.5 0.97648472)
(1.953125 -0.5 0.97770211)
(1.953125 -0.5 0.97885785)
(1.953125 -0.5 0.97995491)
(1.953125 -0.5 0.98099616)
(1.953125 -0.5 0.98198431)
(1.953125 -0.5 0.98292198)
(1.953125 -0.5 0.98381166)
(1.953125 -0.5 0.98465571)
(1.953125 -0.5 0.98545641)
(1.953125 -0.5 0.98621592)
(1.953125 -0.5 0.98693629)
(1.953125 -0.5 0.98761949)
(1.953125 -0.5 0.98826738)
(1.953125 -0.5 0.98888176)
(1.953125 -0.5 0.98946431)
(1.953125 -0.5 0.99001664)
(1.953125 -0.5 0.9905403)
(1.953125 -0.5 0.99103675)
(1.953125 -0.5 0.99150736)
(1.953125 -0.5 0.99195347)
(1.953125 -0.5 0.99237633)
(1.953125 -0.5 0.99277713)
(1.953125 -0.5 0.99315701)
(1.953125 -0.5 0.99351704)
(1.953125 -0.5 0.99385825)
(1.953125 -0.5 0.99418161)
(1.953125 -0.5 0.99448804)
(1.953125 -0.5 0.99477842)
(1.953125 -0.5 0.99505358)
(1.953125 -0.5 0.99531431)
(1.953125 -0.5 0.99556136)
(1.953125 -0.5 0.99579545)
(1.953125 -0.5 0.99601724)
(1.953125 -0.5 0.99622737)
(1.953125 -0.5 0.99642647)
(1.953125 -0.5 0.99661509)
(1.953125 -0.5 0.99679379)
(1.953125 -0.5 0.99696309)
(1.953125 -0.5 0.99712348)
(1.953125 -0.5 0.99727542)
(1.953125 -0.5 0.99741936)
(1.953125 -0.5 0.99755572)
(1.953125 -0.5 0.99768489)
(1.953125 -0.5 0.99780726)
(1.953125 -0.5 0.99792317)
(1.953125 -0.5 0.99803297)
(1.953125 -0.5 0.99813697)
(1.953125 -0.5 0.99823549)
(1.953125 -0.5 0.99832881)
(1.953125 -0.5 0.99841721)
(1.953125 -0.5 0.99850094)
(1.953125 -0.5 0.99858025)
(1.953125 -0.5 0.99865537)
(1.953125 -0.5 0.99872653)
(1.953125 -0.5 0.99879392)
(1.953125 -0.5 0.99885776)
(1.953125 -0.5 0.99891822)
(1.953125 -0.5 0.99897549)
(1.953125 -0.5 0.99902973)
(1.953125 -0.5 0.99908111)
(1.953125 -0.5 0.99912977)
(1.953125 -0.5 0.99917586)
(1.953125 -0.5 0.99921951)
(1.953125 -0.5 0.99926085)
(1.953125 -0.5 0.99930001)
(1.953125 -0.5 0.9993371)
(1.953125 -0.5 0.99937222)
(1.953125 -0.5 0.99940549)
(1.953125 -0.5 0.999437)
(1.953125 -0.5 0.99946684)
(1.953125 -0.5 0.99949511)
(1.953125 -0.5 0.99952187)
(1.953125 -0.5 0.99954723)
(1.953125 -0.5 0.99957124)
(1.953125 -0.5 0.99959398)
(1.953125 -0.5 0.99961552)
(1.953125 -0.5 0.99963591)
(1.953125 -0.5 0.99965523)
(1.953125 -0.5 0.99967353)
(1.953125 -0.5 0.99969086)
(1.953125 -0.5 0.99970727)
(1.953125 -0.5 0.99972281)
(1.953125 -0.5 0.99973753)
(1.953125 -0.5 0.99975148)
(1.953125 -0.5 0.99976468)
(1.953125 -0.5 0.99977718)
(1.953125 -0.5 0.99978903)
(1.953125 -0.5 0.99980024)
(1.953125 -0.5 0.99981087)
(1.953125 -0.5 0.99982093)
(1.953125 -0.5 0.99983045)
(1.953125 -0.5 0.99983948)
(1.953125 -0.5 0.99984802)
(1.953125 -0.5 0.99985612)
(1.953125 -0.5 0.99986378)
(1.953125 -0.5 0.99987104)
(1.953125 -0.5 0.99987791)
(1.953125 -0.5 0.99988443)
(1.953125 -0.5 0.99989059)
(1.953125 -0.5 0.99989643)
(1.953125 -0.5 0.99990196)
(1.953125 -0.5 0.9999072)
(1.953125 -0.5 0.99991216)
(1.953125 -0.5 0.99991686)
(1.953125 -0.5 0.99992131)
(1.953125 -0.5 0.99992552)
(1.953125 -0.5 0.99992951)
(1.953125 -0.5 0.99993329)
(1.953125 -0.5 0.99993687)
(1.953125 -0.5 0.99994026)
(1.953125 -0.5 0.99994347)
(1.953125 -0.5 0.99994651)
(1.953125 -0.5 0.99994939)
(1.953125 -0.5 0.99995212)
(1.953125 -0.5 0.9999547)
(1.953125 -0.5 0.99995715)
(1.953125 -0.5 0.99995946)
(1.953125 -0.5 0.99996166)
(1.953125 -0.5 0.99996373)
(1.953125 -0.5 0.9999657)
(1.953125 -0.5 0.99996757)
(1.953125 -0.5 0.99996933)
(1.953125 -0.5 0.999971)
(1.953125 -0.5 0.99997258)
(1.953125 -0.5 0.99997408)
(1.953125 -0.5 0.9999755)
(1.953125 -0.5 0.99997685)
(1.953125 -0.5 0.99997812)
(1.953125 -0.5 0.99997933)
(1.953125 -0.5 0.99998047)
(1.953125 -0.5 0.99998155)
(1.953125 -0.5 0.99998257)
(1.953125 -0.5 0.99998354)
(1.953125 -0.5 0.99998446)
(1.953125 -0.5 0.99998533)
(1.953125 -0.5 0.99998616)
(1.953125 -0.5 0.99998694)
(1.953125 -0.5 0.99998768)
(1.953125 -0.5 0.99998838)
(1.953125 -0.5 0.99998904)
(1.953125 -0.5 0.99998967)
(1.953125 -0.5 0.99999026)
(1.953125 -0.5 0.99999082)
(1.953125 -0.5 0.99999136)
(1.953125 -0.5 0.99999186)
(1.953125 -0.5 0.99999234)
(1.953125 -0.5 0.99999279)
(1.953125 -0.5 0.99999322)
(1.953125 -0.5 0.99999363)
(1.953125 -0.5 0.99999401)
(1.953125 -0.5 0.99999438)
(1.953125 -0.5 0.99999472)
(1.953125 -0.5 0.99999505)
(1.953125 -0.5 0.99999536)
(1.953125 -0.5 0.99999565)
(1.953125 -0.5 0.99999593)
(1.953125 -0.5 0.99999619)
(1.953125 -0.5 0.99999644)
(1.953125 -0.5 0.99999668)
(1.953125 -0.5 0.9999969)
(1.953125 -0.5 0.99999711)
(1.953125 -0.5 0.99999731)
(1.953125 -0.5 0.9999975)
(1.953125 -0.5 0.99999768)
(1.953125 -0.5 0.99999785)
(1.953125 -0.5 0.99999801)
(1.953125 -0.5 0.99999817)
(1.953125 -0.5 0.99999831)
(1.953125 -0.5 0.99999845)
(1.953125 -0.5 0.99999858)
(1.953125 -0.5 0.9999987)
(1.953125 -0.5 0.99999882)
(1.953125 -0.5 0.99999893)
(1.953125 -0.5 0.99999903)
(1.953125 -0.5 0.99999913)
(1.953125 -0.5 0.99999922)
(1.953125 -0.5 0.99999931)
(1.953125 -0.5 0.99999939)
(1.953125 -0.5 0.99999947)
(1.953125 -0.5 0.99999955)
(1.953125 -0.5 0.99999962)
(1.953125 -0.5 0.99999969)
(1.953125 -0.5 0.99999975)
(1.953125 -0.5 0.99999981)
(1.953125 -0.5 0.99999987)
(1.953125 -0.5 0.99999992)
(1.953125 -0.5 0.99999997)
(5.859375 -0.5 2.5e-08)
(5.859375 -0.5 7.6397755e-08)
(5.859375 -0.5 1.3066917e-07)
(5.859375 -0.5 1.8797491e-07)
(5.859375 -0.5 2.4848463e-07)
(5.859375 -0.5 3.1237746e-07)
(5.859375 -0.5 3.7984255e-07)
(5.859375 -0.5 4.5107962e-07)
(5.859375 -0.5 5.2629957e-07)
(5.859375 -0.5 6.0572508e-07)
(5.859375 -0.5 6.8959129e-07)
(5.859375 -0.5 7.7814646e-07)
(5.859375 -0.5 8.7165277e-07)
(5.859375 -0.5 9.7038703e-07)
(5.859375 -0.5 1.0746415e-06)
(5.859375 -0.5 1.1847249e-06)
(5.859375 -0.5 1.3009631e-06)
(5.859375 -0.5 1.4237001e-06)
(5.859375 -0.5 1.5532994e-06)
(5.859375 -0.5 1.6901446e-06)
(5.859375 -0.5 1.8346408e-06)
(5.859375 -0.5 1.9872157e-06)
(5.859375 -0.5 2.1483212e-06)
(5.859375 -0.5 2.318434e-06)
(5.859375 -0.5 2.4980579e-06)
(5.859375 -0.5 2.6877245e-06)
(5.859375 -0.5 2.8879954e-06)
(5.859375 -0.5 3.0994633e-06)
(5.859375 -0.5 3.3227545e-06)
(5.859375 -0.5 3.5585298e-06)
(5.859375 -0.5 3.8074872e-06)
(5.859375 -0.5 4.0703638e-06)
(5.859375 -0.5 4.3479378e-06)
(5.859375 -0.5 4.6410309e-06)
(5.859375 -0.5 4.9505107e-06)
(5.859375 -0.5 5.2772934e-06)
(5.859375 -0.5 5.6223464e-06)
(5.859375 -0.5 5.9866912e-06)
(5.859375 -0.5 6.3714064e-06)
(5.859375 -0.5 6.7776307e-06)
(5.859375 -0.5 7.2065669e-06)
(5.859375 -0.5 7.6594846e-06)
(5.859375 -0.5 8.1377247e-06)
(5.859375 -0.5 8.6427028e-06)
(5.859375 -0.5 9.1759138e-06)
(5.859375 -0.5 9.7389363e-06)
(5.859375 -0.5 1.0333437e-05)
(5.859375 -0.5 1.0961175e-05)
(5.859375 -0.5 1.162401e-05)
(5.859375 -0.5 1.2323903e-05)
(5.859375 -0.5 1.3062926e-05)
(5.859375 -0.5 1.3843267e-05)
(5.859375 -0.5 1.4667236e-05)
(5.859375 -0.5 1.5537272e-05)
(5.859375 -0.5 1.645595e-05)
(5.859375 -0.5 1.742599e-05)
(5.859375 -0.5 1.8450263e-05)
(5.859375 -0.5 1.9531801e-05)
(5.859375 -0.5 2.0673806e-05)
(5.859375 -0.5 2.1879658e-05)
(5.859375 -0.5 2.3152926e-05)
(5.859375 -0.5 2.449738e-05)
(5.859375 -0.5 2.5916999e-05)
(5.859375 -0.5 2.7415984e-05)
(5.859375 -0.5 2.8998774e-05)
(5.859375 -0.5 3.0670052e-05)
(5.859375 -0.5 3.2434766e-05)
(5.859375 -0.5 3.4298139e-05)
(5.859375 -0.5 3.6265686e-05)
(5.859375 -0.5 3.8343231e-05)
(5.859375 -0.5 4.0536923e-05)
(5.859375 -0.5 4.2853254e-05)
(5.859375 -0.5 4.5299081e-05)
(5.859375 -0.5 4.7881642e-05)
(5.859375 -0.5 5.060858e-05)
(5.859375 -0.5 5.3487965e-05)
(5.859375 -0.5 5.6528321e-05)
(5.859375 -0.5 5.9738643e-05)
(5.859375 -0.5 6.3128433e-05)
(5.859375 -0.5 6.6707723e-05)
(5.859375 -0.5 7.0487104e-05)
(5.859375 -0.5 7.447776e-05)
(5.859375 -0.5 7.8691501e-05)
(5.859375 -0.5 8.3140794e-05)
(5.859375 -0.5 8.7838807e-05)
(5.859375 -0.5 9.2799438e-05)
(5.859375 -0.5 9.8037367e-05)
(5.859375 -0.5 0.00010356809)
(5.859375 -0.5 0.00010940797)
(5.859375 -0.5 0.00011557429)
(5.859375 -0.5 0.00012208528)
(5.859375 -0.5 0.00012896022)
(5.859375 -0.5 0.00013621943)
(5.859375 -0.5 0.0001438844)
(5.859375 -0.5 0.00015197778)
(5.859375 -0.5 0.00016052353)
(5.859375 -0.5 0.00016954691)
(5.859375 -0.5 0.00017907462)
(5.859375 -0.5 0.00018913483)
(5.859375 -0.5 0.00019975729)
(5.859375 -0.5 0.0002109734)
(5.859375 -0.5 0.00022281635)
(5.859375 -0.5 0.00023532112)
(5.859375 -0.5 0.00024852471)
(5.859375 -0.5 0.00026246613)
(5.859375 -0.5 0.00027718661)
(5.859375 -0.5 0.00029272963)
(5.859375 -0.5 0.00030914115)
(5.859375 -0.5 0.00032646965)
(5.859375 -0.5 0.00034476635)
(5.859375 -0.5 0.00036408529)
(5.859375 -0.5 0.00038448355)
(5.859375 -0.5 0.00040602138)
(5.859375 -0.5 0.00042876239)
(5.859375 -0.5 0.00045277373)
(5.859375 -0.5 0.0004781263)
(5.859375 -0.5 0.00050489494)
(5.859375 -0.5 0.00053315867)
(5.859375 -0.5 0.0005630009)
(5.859375 -0.5 0.00059450968)
(5.859375 -0.5 0.00062777797)
(5.859375 -0.5 0.0006629039)
(5.859375 -0.5 0.00069999104)
(5.859375 -0.5 0.00073914875)
(5.859375 -0.5 0.00078049245)
(5.859375 -0.5 0.00082414397)
(5.859375 -0.5 0.00087023192)
(5.859375 -0.5 0.00091889205)
(5.859375 -0.5 0.00097026763)
(5.859375 -0.5 0.0010245099)
(5.859375 -0.5 0.0010817785)
(5.859375 -0.5 0.0011422418)
(5.859375 -0.5 0.0012060777)
(5.859375 -0.5 0.0012734739)
(5.859375 -0.5 0.0013446283)
(5.859375 -0.5 0.0014197499)
(5.859375 -0.5 0.0014990594)
(5.859375 -0.5 0.0015827894)
(5.859375 -0.5 0.0016711855)
(5.859375 -0.5 0.0017645069)
(5.859375 -0.5 0.0018630269)
(5.859375 -0.5 0.0019670342)
(5.859375 -0.5 0.0020768329)
(5.859375 -0.5 0.0021927443)
(5.859375 -0.5 0.0023151071)
(5.859375 -0.5 0.0024442787)
(5.859375 -0.5 0.0025806359)
(5.859375 -0.5 0.0027245765)
(5.859375 -0.5 0.0028765197)
(5.859375 -0.5 0.0030369078)
(5.859375 -0.5 0.0032062072)
(5.859375 -0.5 0.0033849097)
(5.859375 -0.5 0.003573534)
(5.859375 -0.5 0.0037726268)
(5.859375 -0.5 0.0039827645)
(5.859375 -0.5 0.0042045549)
(5.859375 -0.5 0.0044386383)
(5.859375 -0.5 0.0046856899)
(5.859375 -0.5 0.0049464211)
(5.859375 -0.5 0.0052215815)
(5.859375 -0.5 0.005511961)
(5.859375 -0.5 0.0058183916)
(5.859375 -0.5 0.0061417498)
(5.859375 -0.5 0.0064829586)
(5.859375 -0.5 0.0068429902)
(5.859375 -0.5 0.0072228679)
(5.859375 -0.5 0.0076236692)
(5.859375 -0.5 0.008046528)
(5.859375 -0.5 0.0084926377)
(5.859375 -0.5 0.008963254)
(5.859375 -0.5 0.0094596975)
(5.859375 -0.5 0.0099833574)
(5.859375 -0.5 0.010535694)
(5.859375 -0.5 0.011118243)
(5.859375 -0.5 0.011732618)
(5.859375 -0.5 0.012380515)
(5.859375 -0.5 0.013063713)
(5.859375 -0.5 0.013784083)
(5.859375 -0.5 0.014543588)
(5.859375 -0.5 0.015344287)
(5.859375 -0.5 0.016188342)
(5.859375 -0.5 0.017078017)
(5.859375 -0.5 0.018015689)
(5.859375 -0.5 0.019003845)
(5.859375 -0.5 0.020045091)
(5.859375 -0.5 0.021142155)
(5.859375 -0.5 0.022297891)
(5.859375 -0.5 0.023515285)
(5.859375 -0.5 0.024797455)
(5.859375 -0.5 0.026147659)
(5.859375 -0.5 0.027569298)
(5.859375 -0.5 0.02906592)
(5.859375 -0.5 0.030641223)
(5.859375 -0.5 0.032299059)
(5.859375 -0.5 0.034043437)
(5.859375 -0.5 0.035878526)
(5.859375 -0.5 0.037808657)
(5.859375 -0.5 0.039838326)
(5.859375 -0.5 0.041972195)
(5.859375 -0.5 0.044215091)
(5.859375 -0.5 0.04657201)
(5.859375 -0.5 0.049048112)
(5.859375 -0.5 0.051648723)
(5.859375 -0.5 0.05437933)
(5.859375 -0.5 0.057245579)
(5.859375 -0.5 0.060253268)
(5.859375 -0.5 0.063408345)
(5.859375 -0.5 0.066716894)
(5.859375 -0.5 0.070185131)
(5.859375 -0.5 0.073819391)
(5.859375 -0.5 0.077626115)
(5.859375 -0.5 0.081611834)
(5.859375 -0.5 0.085783154)
(5.859375 -0.5 0.090146736)
(5.859375 -0.5 0.094709273)
(5.859375 -0.5 0.099477468)
(5.859375 -0.5 0.104458)
(5.859375 -0.5 0.10965752)
(5.859375 -0.5 0.11508256)
(5.859375 -0.5 0.12073959)
(5.859375 -0.5 0.12663487)
(5.859375 -0.5 0.13277451)
(5.859375 -0.5 0.13916436)
(5.859375 -0.5 0.14581)
(5.859375 -0.5 0.15271667)
(5.859375 -0.5 0.15988922)
(5.859375 -0.5 0.16733208)
(5.859375 -0.5 0.17504919)
(5.859375 -0.5 0.18304393)
(5.859375 -0.5 0.19131909)
(5.859375 -0.5 0.19987679)
(5.859375 -0.5 0.20871844)
(5.859375 -0.5 0.21784468)
(5.859375 -0.5 0.22725533)
(5.859375 -0.5 0.23694931)
(5.859375 -0.5 0.24692463)
(5.859375 -0.5 0.25717832)
(5.859375 -0.5 0.26770639)
(5.859375 -0.5 0.27850383)
(5.859375 -0.5 0.28956451)
(5.859375 -0.5 0.30088124)
(5.859375 -0.5 0.31244569)
(5.859375 -0.5 0.32424843)
(5.859375 -0.5 0.33627893)
(5.859375 -0.5 0.34852554)
(5.859375 -0.5 0.36097554)
(5.859375 -0.5 0.3736152)
(5.859375 -0.5 0.38642977)
(5.859375 -0.5 0.39940358)
(5.859375 -0.5 0.41252009)
(5.859375 -0.5 0.42576196)
(5.859375 -0.5 0.43911117)
(5.859375 -0.5 0.45254906)
(5.859375 -0.5 0.46605647)
(5.859375 -0.5 0.47961382)
(5.859375 -0.5 0.49320126)
(5.859375 -0.5 0.50679874)
(5.859375 -0.5 0.52038618)
(5.859375 -0.5 0.53394354)
(5.859375 -0.5 0.54745094)
(5.859375 -0.5 0.56088883)
(5.859375 -0.5 0.57423804)
(5.859375 -0.5 0.58747991)
(5.859375 -0.5 0.60059642)
(5.859375 -0.5 0.61357023)
(5.859375 -0.5 0.6263848)
(5.859375 -0.5 0.63902446)
(5.859375 -0.5 0.65147446)
(5.859375 -0.5 0.66372107)
(5.859375 -0.5 0.67575157)
(5.859375 -0.5 0.68755431)
(5.859375 -0.5 0.69911876)
(5.859375 -0.5 0.71043549)
(5.859375 -0.5 0.72149617)
(5.859375 -0.5 0.73229361)
(5.859375 -0.5 0.74282168)
(5.859375 -0.5 0.75307537)
(5.859375 -0.5 0.76305069)
(5.859375 -0.5 0.77274467)
(5.859375 -0.5 0.78215532)
(5.859375 -0.5 0.79128156)
(5.859375 -0.5 0.80012321)
(5.859375 -0.5 0.80868091)
(5.859375 -0.5 0.81695607)
(5.859375 -0.5 0.82495081)
(5.859375 -0.5 0.83266792)
(5.859375 -0.5 0.84011078)
(5.859375 -0.5 0.84728333)
(5.859375 -0.5 0.85419)
(5.859375 -0.5 0.86083564)
(5.859375 -0.5 0.86722549)
(5.859375 -0.5 0.87336513)
(5.859375 -0.5 0.87926041)
(5.859375 -0.5 0.88491744)
(5.859375 -0.5 0.89034248)
(5.859375 -0.5 0.895542)
(5.859375 -0.5 0.90052253)
(5.859375 -0.5 0.90529073)
(5.859375 -0.5 0.90985326)
(5.859375 -0.5 0.91421685)
(5.859375 -0.5 0.91838817)
(5.859375 -0.5 0.92237389)
(5.859375 -0.5 0.92618061)
(5.859375 -0.5 0.92981487)
(5.859375 -0.5 0.93328311)
(5.859375 -0.5 0.93659166)
(5.859375 -0.5 0.93974673)
(5.859375 -0.5 0.94275442)
(5.859375 -0.5 0.94562067)
(5.859375 -0.5 0.94835128)
(5.859375 -0.5 0.95095189)
(5.859375 -0.5 0.95342799)
(5.859375 -0.5 0.95578491)
(5.859375 -0.5 0.9580278)
(5.859375 -0.5 0.96016167)
(5.859375 -0.5 0.96219134)
(5.859375 -0.5 0.96412147)
(5.859375 -0.5 0.96595656)
(5.859375 -0.5 0.96770094)
(5.859375 -0.5 0.96935878)
(5.859375 -0.5 0.97093408)
(5.859375 -0.5 0.9724307)
(5.859375 -0.5 0.97385234)
(5.859375 -0.5 0.97520255)
(5.859375 -0.5 0.97648472)
(5.859375 -0.5 0.97770211)
(5.859375 -0.5 0.97885785)
(5.859375 -0.5 0.97995491)
(5.859375 -0.5 0.98099616)
(5.859375 -0.5 0.98198431)
(5.859375 -0.5 0.98292198)
(5.859375 -0.5 0.98381166)
(5.859375 -0.5 0.98465571)
(5.859375 -0.5 0.98545641)
(5.859375 -0.5 0.98621592)
(5.859375 -0.5 0.98693629)
(5.859375 -0.5 0.98761949)
(5.859375 -0.5 0.98826738)
(5.859375 -0.5 0.98888176)
(5.859375 -0.5 0.98946431)
(5.859375 -0.5 0.99001664)
(5.859375 -0.5 0.9905403)
(5.859375 -0.5 0.99103675)
(5.859375 -0.5 0.99150736)
(5.859375 -0.5 0.99195347)
(5.859375 -0.5 0.99237633)
(5.859375 -0.5 0.99277713)
(5.859375 -0.5 0.99315701)
(5.859375 -0.5 0.99351704)
(5.859375 -0.5 0.99385825)
(5.859375 -0.5 0.99418161)
(5.859375 -0.5 0.99448804)
(5.859375 -0.5 0.99477842)
(5.859375 -0.5 0.99505358)
(5.859375 -0.5 0.99531431)
(5.859375 -0.5 0.99556136)
(5.859375 -0.5 0.99579545)
(5.859375 -0.5 0.99601724)
(5.859375 -0.5 0.99622737)
(5.859375 -0.5 0.99642647)
(5.859375 -0.5 0.99661509)
(5.859375 -0.5 0.99679379)
(5.859375 -0.5 0.99696309)
(5.859375 -0.5 0.99712348)
(5.859375 -0.5 0.99727542)
(5.859375 -0.5 0.99741936)
(5.859375 -0.5 0.99755572)
(5.859375 -0.5 0.99768489)
(5.859375 -0.5 0.99780726)
(5.859375 -0.5 0.99792317)
(5.859375 -0.5 0.99803297)
(5.859375 -0.5 0.99813697)
(5.859375 -0.5 0.99823549)
(5.859375 -0.5 0.99832881)
(5.859375 -0.5 0.99841721)
(5.859375 -0.5 0.99850094)
(5.859375 -0.5 0.99858025)
(5.859375 -0.5 0.99865537)
(5.859375 -0.5 0.99872653)
(5.859375 -0.5 0.99879392)
(5.859375 -0.5 0.99885776)
(5.859375 -0.5 0.99891822)
(5.859375 -0.5 0.99897549)
(5.859375 -0.5 0.99902973)
(5.859375 -0.5 0.99908111)
(5.859375 -0.5 0.99912977)
(5.859375 -0.5 0.99917586)
(5.859375 -0.5 0.99921951)
(5.859375 -0.5 0.99926085)
(5.859375 -0.5 0.99930001)
(5.859375 -0.5 0.9993371)
(5.859375 -0.5 0.99937222)
(5.859375 -0.5 0.99940549)
(5.859375 -0.5 0.999437)
(5.859375 -0.5 0.99946684)
(5.859375 -0.5 0.99949511)
(5.859375 -0.5 0.99952187)
(5.859375 -0.5 0.99954723)
(5.859375 -0.5 0.99957124)
(5.859375 -0.5 0.99959398)
(5.859375 -0.5 0.99961552)
(5.859375 -0.5 0.99963591)
(5.859375 -0.5 0.99965523)
(5.859375 -0.5 0.99967353)
(5.859375 -0.5 0.99969086)
(5.859375 -0.5 0.99970727)
(5.859375 -0.5 0.99972281)
(5.859375 -0.5 0.99973753)
(5.859375 -0.5 0.99975148)
(5.859375 -0.5 0.99976468)
(5.859375 -0.5 0.99977718)
(5.859375 -0.5 0.99978903)
(5.859375 -0.5 0.99980024)
(5.859375 -0.5 0.99981087)
(5.859375 -0.5 0.99982093)
(5.859375 -0.5 0.99983045)
(5.859375 -0.5 0.99983948)
(5.859375 -0.5 0.99984802)
(5.859375 -0.5 0.99985612)
(5.859375 -0.5 0.99986378)
(5.859375 -0.5 0.99987104)
(5.859375 -0.5 0.99987791)
(5.859375 -0.5 0.99988443)
(5.859375 -0.5 0.99989059)
(5.859375 -0.5 0.99989643)
(5.859375 -0.5 0.99990196)
(5.859375 -0.5 0.9999072)
(5.859375 -0.5 0.99991216)
(5.859375 -0.5 0.99991686)
(5.859375 -0.5 0.99992131)
(5.859375 -0.5 0.99992552)
(5.859375 -0.5 0.99992951)
(5.859375 -0.5 0.99993329)
(5.859375 -0.5 0.99993687)
(5.859375 -0.5 0.99994026)
(5.859375 -0.5 0.99994347)
(5.859375 -0.5 0.99994651)
(5.859375 -0.5 0.99994939)
(5.859375 -0.5 0.99995212)
(5.859375 -0.5 0.9999547)
(5.859375 -0.5 0.99995715)
(5.859375 -0.5 0.99995946)
(5.859375 -0.5 0.99996166)
(5.859375 -0.5 0.99996373)
(5.859375 -0.5 0.9999657)
(5.859375 -0.5 0.99996757)
(5.859375 -0.5 0.99996933)
(5.859375 -0.5 0.999971)
(5.859375 -0.5 0.99997258)
(5.859375 -0.5 0.99997408)
(5.859375 -0.5 0.9999755)
(5.859375 -0.5 0.99997685)
(5.859375 -0.5 0.99997812)
(5.859375 -0.5 0.99997933)
(5.859375 -0.5 0.99998047)
(5.859375 -0.5 0.99998155)
(5.859375 -0.5 0.99998257)
(5.859375 -0.5 0.99998354)
(5.859375 -0.5 0.99998446)
(5.859375 -0.5 0.99998533)
(5.859375 -0.5 0.99998616)
(5.859375 -0.5 0.99998694)
(5.859375 -0.5 0.99998768)
(5.859375 -0.5 0.99998838)
(5.859375 -0.5 0.99998904)
(5.859375 -0.5 0.99998967)
(5.859375 -0.5 0.99999026)
(5.859375 -0.5 0.99999082)
(5.859375 -0.5 0.99999136)
(5.859375 -0.5 0.99999186)
(5.859375 -0.5 0.99999234)
(5.859375 -0.5 0.99999279)
(5.859375 -0.5 0.99999322)
(5.859375 -0.5 0.99999363)
(5.859375 -0.5 0.99999401)
(5.859375 -0.5 0.99999438)
(5.859375 -0.5 0.99999472)
(5.859375 -0.5 0.99999505)
(5.859375 -0.5 0.99999536)
(5.859375 -0.5 0.99999565)
(5.859375 -0.5 0.99999593)
(5.859375 -0.5 0.99999619)
(5.859375 -0.5 0.99999644)
(5.859375 -0.5 0.99999668)
(5.859375 -0.5 0.9999969)
(5.859375 -0.5 0.99999711)
(5.859375 -0.5 0.99999731)
(5.859375 -0.5 0.9999975)
(5.859375 -0.5 0.99999768)
(5.859375 -0.5 0.99999785)
(5.859375 -0.5 0.99999801)
(5.859375 -0.5 0.99999817)
(5.859375 -0.5 0.99999831)
(5.859375 -0.5 0.99999845)
(5.859375 -0.5 0.99999858)
(5.859375 -0.5 0.9999987)
(5.859375 -0.5 0.99999882)
(5.859375 -0.5 0.99999893)
(5.859375 -0.5 0.99999903)
(5.859375 -0.5 0.99999913)
(5.859375 -0.5 0.99999922)
(5.859375 -0.5 0.99999931)
(5.859375 -0.5 0.99999939)
(5.859375 -0.5 0.99999947)
(5.859375 -0.5 0.99999955)
(5.859375 -0.5 0.99999962)
(5.859375 -0.5 0.99999969)
(5.859375 -0.5 0.99999975)
(5.859375 -0.5 0.99999981)
(5.859375 -0.5 0.99999987)
(5.859375 -0.5 0.99999992)
(5.859375 -0.5 0.99999997)
(9.765625 -0.5 2.5e-08)
(9.765625 -0.5 7.6397755e-08)
(9.765625 -0.5 1.3066917e-07)
(9.765625 -0.5 1.8797491e-07)
(9.765625 -0.5 2.4848463e-07)
(9.765625 -0.5 3.1237746e-07)
(9.765625 -0.5 3.7984255e-07)
(9.765625 -0.5 4.5107962e-07)
(9.765625 -0.5 5.2629957e-07)
(9.765625 -0.5 6.0572508e-07)
(9.765625 -0.5 6.8959129e-07)
(9.765625 -0.5 7.7814646e-07)
(9.765625 -0.5 8.7165277e-07)
(9.765625 -0.5 9.7038703e-07)
(9.765625 -0.5 1.0746415e-06)
(9.765625 -0.5 1.1847249e-06)
(9.765625 -0.5 1.3009631e-06)