/*--------------------------------*- C++ -*----------------------------------*\
| =========                 |                                                 |
| \\      /  F ield         | OpenFOAM: The Open Source CFD Toolbox           |
|  \\    /   O peration     | Version:  2112                                  |
|   \\  /    A nd           | Website:  www.openfoam.com                      |
|    \\/     M anipulation  |                                                 |
\*---------------------------------------------------------------------------*/
FoamFile
{
    version     2.0;
    format      ascii;
    arch        "LSB;label=32;scalar=64";
    class       volScalarField;
    location    "4416";
    object      Cz;
}
// * * * * * * * * * * * * * * * * * * * * * * * * * * * * * * * * * * * * * //

dimensions      [0 1 0 0 0 0 0];

internalField   nonuniform List<scalar> 
81920
(
2.5e-08
7.6397755e-08
1.3066917e-07
1.8797491e-07
2.4848463e-07
3.1237746e-07
3.7984255e-07
4.5107962e-07
5.2629957e-07
6.0572508e-07
6.8959129e-07
7.7814646e-07
8.7165277e-07
9.7038703e-07
1.0746415e-06
1.1847249e-06
1.3009631e-06
1.4237001e-06
1.5532994e-06
1.6901446e-06
1.8346408e-06
1.9872157e-06
2.1483212e-06
2.318434e-06
2.4980579e-06
2.6877245e-06
2.8879954e-06
3.0994633e-06
3.3227545e-06
3.5585298e-06
3.8074872e-06
4.0703638e-06
4.3479378e-06
4.6410309e-06
4.9505107e-06
5.2772934e-06
5.6223464e-06
5.9866912e-06
6.3714064e-06
6.7776307e-06
7.2065669e-06
7.6594846e-06
8.1377247e-06
8.6427028e-06
9.1759138e-06
9.7389363e-06
1.0333437e-05
1.0961175e-05
1.162401e-05
1.2323903e-05
1.3062926e-05
1.3843267e-05
1.4667236e-05
1.5537272e-05
1.645595e-05
1.742599e-05
1.8450263e-05
1.9531801e-05
2.0673806e-05
2.1879658e-05
2.3152926e-05
2.449738e-05
2.5916999e-05
2.7415984e-05
2.8998774e-05
3.0670052e-05
3.2434766e-05
3.4298139e-05
3.6265686e-05
3.8343231e-05
4.0536923e-05
4.2853254e-05
4.5299081e-05
4.7881642e-05
5.060858e-05
5.3487965e-05
5.6528321e-05
5.9738643e-05
6.3128433e-05
6.6707723e-05
7.0487104e-05
7.447776e-05
7.8691501e-05
8.3140794e-05
8.7838807e-05
9.2799438e-05
9.8037367e-05
0.00010356809
0.00010940797
0.00011557429
0.00012208528
0.00012896022
0.00013621943
0.0001438844
0.00015197778
0.00016052353
0.00016954691
0.00017907462
0.00018913483
0.00019975729
0.0002109734
0.00022281635
0.00023532112
0.00024852471
0.00026246613
0.00027718661
0.00029272963
0.00030914115
0.00032646965
0.00034476635
0.00036408529
0.00038448355
0.00040602138
0.00042876239
0.00045277373
0.0004781263
0.00050489494
0.00053315867
0.0005630009
0.00059450968
0.00062777797
0.0006629039
0.00069999104
0.00073914875
0.00078049245
0.00082414397
0.00087023192
0.00091889205
0.00097026763
0.0010245099
0.0010817785
0.0011422418
0.0012060777
0.0012734739
0.0013446283
0.0014197499
0.0014990594
0.0015827894
0.0016711855
0.0017645069
0.0018630269
0.0019670342
0.0020768329
0.0021927443
0.0023151071
0.0024442787
0.0025806359
0.0027245765
0.0028765197
0.0030369078
0.0032062072
0.0033849097
0.003573534
0.0037726268
0.0039827645
0.0042045549
0.0044386383
0.0046856899
0.0049464211
0.0052215815
0.005511961
0.0058183916
0.0061417498
0.0064829586
0.0068429902
0.0072228679
0.0076236692
0.008046528
0.0084926377
0.008963254
0.0094596975
0.0099833574
0.010535694
0.011118243
0.011732618
0.012380515
0.013063713
0.013784083
0.014543588
0.015344287
0.016188342
0.017078017
0.018015689
0.019003845
0.020045091
0.021142155
0.022297891
0.023515285
0.024797455
0.026147659
0.027569298
0.02906592
0.030641223
0.032299059
0.034043437
0.035878526
0.037808657
0.039838326
0.041972195
0.044215091
0.04657201
0.049048112
0.051648723
0.05437933
0.057245579
0.060253268
0.063408345
0.066716894
0.070185131
0.073819391
0.077626115
0.081611834
0.085783154
0.090146736
0.094709273
0.099477468
0.104458
0.10965752
0.11508256
0.12073959
0.12663487
0.13277451
0.13916436
0.14581
0.15271667
0.15988922
0.16733208
0.17504919
0.18304393
0.19131909
0.19987679
0.20871844
0.21784468
0.22725533
0.23694931
0.24692463
0.25717832
0.26770639
0.27850383
0.28956451
0.30088124
0.31244569
0.32424843
0.33627893
0.34852554
0.36097554
0.3736152
0.38642977
0.39940358
0.41252009
0.42576196
0.43911117
0.45254906
0.46605647
0.47961382
0.49320126
0.50679874
0.52038618
0.53394354
0.54745094
0.56088883
0.57423804
0.58747991
0.60059642
0.61357023
0.6263848
0.63902446
0.65147446
0.66372107
0.67575157
0.68755431
0.69911876
0.71043549
0.72149617
0.73229361
0.74282168
0.75307537
0.76305069
0.77274467
0.78215532
0.79128156
0.80012321
0.80868091
0.81695607
0.82495081
0.83266792
0.84011078
0.84728333
0.85419
0.86083564
0.86722549
0.87336513
0.87926041
0.88491744
0.89034248
0.895542
0.90052253
0.90529073
0.90985326
0.91421685
0.91838817
0.92237389
0.92618061
0.92981487
0.93328311
0.93659166
0.93974673
0.94275442
0.94562067
0.94835128
0.95095189
0.95342799
0.95578491
0.9580278
0.96016167
0.96219134
0.96412147
0.96595656
0.96770094
0.96935878
0.97093408
0.9724307
0.97385234
0.97520255
0.97648472
0.97770211
0.97885785
0.97995491
0.98099616
0.98198431
0.98292198
0.98381166
0.98465571
0.98545641
0.98621592
0.98693629
0.98761949
0.98826738
0.98888176
0.98946431
0.99001664
0.9905403
0.99103675
0.99150736
0.99195347
0.99237633
0.99277713
0.99315701
0.99351704
0.99385825
0.99418161
0.99448804
0.99477842
0.99505358
0.99531431
0.99556136
0.99579545
0.99601724
0.99622737
0.99642647
0.99661509
0.99679379
0.99696309
0.99712348
0.99727542
0.99741936
0.99755572
0.99768489
0.99780726
0.99792317
0.99803297
0.99813697
0.99823549
0.99832881
0.99841721
0.99850094
0.99858025
0.99865537
0.99872653
0.99879392
0.99885776
0.99891822
0.99897549
0.99902973
0.99908111
0.99912977
0.99917586
0.99921951
0.99926085
0.99930001
0.9993371
0.99937222
0.99940549
0.999437
0.99946684
0.99949511
0.99952187
0.99954723
0.99957124
0.99959398
0.99961552
0.99963591
0.99965523
0.99967353
0.99969086
0.99970727
0.99972281
0.99973753
0.99975148
0.99976468
0.99977718
0.99978903
0.99980024
0.99981087
0.99982093
0.99983045
0.99983948
0.99984802
0.99985612
0.99986378
0.99987104
0.99987791
0.99988443
0.99989059
0.99989643
0.99990196
0.9999072
0.99991216
0.99991686
0.99992131
0.99992552
0.99992951
0.99993329
0.99993687
0.99994026
0.99994347
0.99994651
0.99994939
0.99995212
0.9999547
0.99995715
0.99995946
0.99996166
0.99996373
0.9999657
0.99996757
0.99996933
0.999971
0.99997258
0.99997408
0.9999755
0.99997685
0.99997812
0.99997933
0.99998047
0.99998155
0.99998257
0.99998354
0.99998446
0.99998533
0.99998616
0.99998694
0.99998768
0.99998838
0.99998904
0.99998967
0.99999026
0.99999082
0.99999136
0.99999186
0.99999234
0.99999279
0.99999322
0.99999363
0.99999401
0.99999438
0.99999472
0.99999505
0.99999536
0.99999565
0.99999593
0.99999619
0.99999644
0.99999668
0.9999969
0.99999711
0.99999731
0.9999975
0.99999768
0.99999785
0.99999801
0.99999817
0.99999831
0.99999845
0.99999858
0.9999987
0.99999882
0.99999893
0.99999903
0.99999913
0.99999922
0.99999931
0.99999939
0.99999947
0.99999955
0.99999962
0.99999969
0.99999975
0.99999981
0.99999987
0.99999992
0.99999997
2.5e-08
7.6397755e-08
1.3066917e-07
1.8797491e-07
2.4848463e-07
3.1237746e-07
3.7984255e-07
4.5107962e-07
5.2629957e-07
6.0572508e-07
6.8959129e-07
7.7814646e-07
8.7165277e-07
9.7038703e-07
1.0746415e-06
1.1847249e-06
1.3009631e-06
1.4237001e-06
1.5532994e-06
1.6901446e-06
1.8346408e-06
1.9872157e-06
2.1483212e-06
2.318434e-06
2.4980579e-06
2.6877245e-06
2.8879954e-06
3.0994633e-06
3.3227545e-06
3.5585298e-06
3.8074872e-06
4.0703638e-06
4.3479378e-06
4.6410309e-06
4.9505107e-06
5.2772934e-06
5.6223464e-06
5.9866912e-06
6.3714064e-06
6.7776307e-06
7.2065669e-06
7.6594846e-06
8.1377247e-06
8.6427028e-06
9.1759138e-06
9.7389363e-06
1.0333437e-05
1.0961175e-05
1.162401e-05
1.2323903e-05
1.3062926e-05
1.3843267e-05
1.4667236e-05
1.5537272e-05
1.645595e-05
1.742599e-05
1.8450263e-05
1.9531801e-05
2.0673806e-05
2.1879658e-05
2.3152926e-05
2.449738e-05
2.5916999e-05
2.7415984e-05
2.8998774e-05
3.0670052e-05
3.2434766e-05
3.4298139e-05
3.6265686e-05
3.8343231e-05
4.0536923e-05
4.2853254e-05
4.5299081e-05
4.7881642e-05
5.060858e-05
5.3487965e-05
5.6528321e-05
5.9738643e-05
6.3128433e-05
6.6707723e-05
7.0487104e-05
7.447776e-05
7.8691501e-05
8.3140794e-05
8.7838807e-05
9.2799438e-05
9.8037367e-05
0.00010356809
0.00010940797
0.00011557429
0.00012208528
0.00012896022
0.00013621943
0.0001438844
0.00015197778
0.00016052353
0.00016954691
0.00017907462
0.00018913483
0.00019975729
0.0002109734
0.00022281635
0.00023532112
0.00024852471
0.00026246613
0.00027718661
0.00029272963
0.00030914115
0.00032646965
0.00034476635
0.00036408529
0.00038448355
0.00040602138
0.00042876239
0.00045277373
0.0004781263
0.00050489494
0.00053315867
0.0005630009
0.00059450968
0.00062777797
0.0006629039
0.00069999104
0.00073914875
0.00078049245
0.00082414397
0.00087023192
0.00091889205
0.00097026763
0.0010245099
0.0010817785
0.0011422418
0.0012060777
0.0012734739
0.0013446283
0.0014197499
0.0014990594
0.0015827894
0.0016711855
0.0017645069
0.0018630269
0.0019670342
0.0020768329
0.0021927443
0.0023151071
0.0024442787
0.0025806359
0.0027245765
0.0028765197
0.0030369078
0.0032062072
0.0033849097
0.003573534
0.0037726268
0.0039827645
0.0042045549
0.0044386383
0.0046856899
0.0049464211
0.0052215815
0.005511961
0.0058183916
0.0061417498
0.0064829586
0.0068429902
0.0072228679
0.0076236692
0.008046528
0.0084926377
0.008963254
0.0094596975
0.0099833574
0.010535694
0.011118243
0.011732618
0.012380515
0.013063713
0.013784083
0.014543588
0.015344287
0.016188342
0.017078017
0.018015689
0.019003845
0.020045091
0.021142155
0.022297891
0.023515285
0.024797455
0.026147659
0.027569298
0.02906592
0.030641223
0.032299059
0.034043437
0.035878526
0.037808657
0.039838326
0.041972195
0.044215091
0.04657201
0.049048112
0.051648723
0.05437933
0.057245579
0.060253268
0.063408345
0.066716894
0.070185131
0.073819391
0.077626115
0.081611834
0.085783154
0.090146736
0.094709273
0.099477468
0.104458
0.10965752
0.11508256
0.12073959
0.12663487
0.13277451
0.13916436
0.14581
0.15271667
0.15988922
0.16733208
0.17504919
0.18304393
0.19131909
0.19987679
0.20871844
0.21784468
0.22725533
0.23694931
0.24692463
0.25717832
0.26770639
0.27850383
0.28956451
0.30088124
0.31244569
0.32424843
0.33627893
0.34852554
0.36097554
0.3736152
0.38642977
0.39940358
0.41252009
0.42576196
0.43911117
0.45254906
0.46605647
0.47961382
0.49320126
0.50679874
0.52038618
0.53394354
0.54745094
0.56088883
0.57423804
0.58747991
0.60059642
0.61357023
0.6263848
0.63902446
0.65147446
0.66372107
0.67575157
0.68755431
0.69911876
0.71043549
0.72149617
0.73229361
0.74282168
0.75307537
0.76305069
0.77274467
0.78215532
0.79128156
0.80012321
0.80868091
0.81695607
0.82495081
0.83266792
0.84011078
0.84728333
0.85419
0.86083564
0.86722549
0.87336513
0.87926041
0.88491744
0.89034248
0.895542
0.90052253
0.90529073
0.90985326
0.91421685
0.91838817
0.92237389
0.92618061
0.92981487
0.93328311
0.93659166
0.93974673
0.94275442
0.94562067
0.94835128
0.95095189
0.95342799
0.95578491
0.9580278
0.96016167
0.96219134
0.96412147
0.96595656
0.96770094
0.96935878
0.97093408
0.9724307
0.97385234
0.97520255
0.97648472
0.97770211
0.97885785
0.97995491
0.98099616
0.98198431
0.98292198
0.98381166
0.98465571
0.98545641
0.98621592
0.98693629
0.98761949
0.98826738
0.98888176
0.98946431
0.99001664
0.9905403
0.99103675
0.99150736
0.99195347
0.99237633
0.99277713
0.99315701
0.99351704
0.99385825
0.99418161
0.99448804
0.99477842
0.99505358
0.99531431
0.99556136
0.99579545
0.99601724
0.99622737
0.99642647
0.99661509
0.99679379
0.99696309
0.99712348
0.99727542
0.99741936
0.99755572
0.99768489
0.99780726
0.99792317
0.99803297
0.99813697
0.99823549
0.99832881
0.99841721
0.99850094
0.99858025
0.99865537
0.99872653
0.99879392
0.99885776
0.99891822
0.99897549
0.99902973
0.99908111
0.99912977
0.99917586
0.99921951
0.99926085
0.99930001
0.9993371
0.99937222
0.99940549
0.999437
0.99946684
0.99949511
0.99952187
0.99954723
0.99957124
0.99959398
0.99961552
0.99963591
0.99965523
0.99967353
0.99969086
0.99970727
0.99972281
0.99973753
0.99975148
0.99976468
0.99977718
0.99978903
0.99980024
0.99981087
0.99982093
0.99983045
0.99983948
0.99984802
0.99985612
0.99986378
0.99987104
0.99987791
0.99988443
0.99989059
0.99989643
0.99990196
0.9999072
0.99991216
0.99991686
0.99992131
0.99992552
0.99992951
0.99993329
0.99993687
0.99994026
0.99994347
0.99994651
0.99994939
0.99995212
0.9999547
0.99995715
0.99995946
0.99996166
0.99996373
0.9999657
0.99996757
0.99996933
0.999971
0.99997258
0.99997408
0.9999755
0.99997685
0.99997812
0.99997933
0.99998047
0.99998155
0.99998257
0.99998354
0.99998446
0.99998533
0.99998616
0.99998694
0.99998768
0.99998838
0.99998904
0.99998967
0.99999026
0.99999082
0.99999136
0.99999186
0.99999234
0.99999279
0.99999322
0.99999363
0.99999401
0.99999438
0.99999472
0.99999505
0.99999536
0.99999565
0.99999593
0.99999619
0.99999644
0.99999668
0.9999969
0.99999711
0.99999731
0.9999975
0.99999768
0.99999785
0.99999801
0.99999817
0.99999831
0.99999845
0.99999858
0.9999987
0.99999882
0.99999893
0.99999903
0.99999913
0.99999922
0.99999931
0.99999939
0.99999947
0.99999955
0.99999962
0.99999969
0.99999975
0.99999981
0.99999987
0.99999992
0.99999997
2.5e-08
7.6397755e-08
1.3066917e-07
1.8797491e-07
2.4848463e-07
3.1237746e-07
3.7984255e-07
4.5107962e-07
5.2629957e-07
6.0572508e-07
6.8959129e-07
7.7814646e-07
8.7165277e-07
9.7038703e-07
1.0746415e-06
1.1847249e-06
1.3009631e-06
1.4237001e-06
1.5532994e-06
1.6901446e-06
1.8346408e-06
1.9872157e-06
2.1483212e-06
2.318434e-06
2.4980579e-06
2.6877245e-06
2.8879954e-06
3.0994633e-06
3.3227545e-06
3.5585298e-06
3.8074872e-06
4.0703638e-06
4.3479378e-06
4.6410309e-06
4.9505107e-06
5.2772934e-06
5.6223464e-06
5.9866912e-06
6.3714064e-06
6.7776307e-06
7.2065669e-06
7.6594846e-06
8.1377247e-06
8.6427028e-06
9.1759138e-06
9.7389363e-06
1.0333437e-05
1.0961175e-05
1.162401e-05
1.2323903e-05
1.3062926e-05
1.3843267e-05
1.4667236e-05
1.5537272e-05
1.645595e-05
1.742599e-05
1.8450263e-05
1.9531801e-05
2.0673806e-05
2.1879658e-05
2.3152926e-05
2.449738e-05
2.5916999e-05
2.7415984e-05
2.8998774e-05
3.0670052e-05
3.2434766e-05
3.4298139e-05
3.6265686e-05
3.8343231e-05
4.0536923e-05
4.2853254e-05
4.5299081e-05
4.7881642e-05
5.060858e-05
5.3487965e-05
5.6528321e-05
5.9738643e-05
6.3128433e-05
6.6707723e-05
7.0487104e-05
7.447776e-05
7.8691501e-05
8.3140794e-05
8.7838807e-05
9.2799438e-05
9.8037367e-05
0.00010356809
0.00010940797
0.00011557429
0.00012208528
0.00012896022
0.00013621943
0.0001438844
0.00015197778
0.00016052353
0.00016954691
0.00017907462
0.00018913483
0.00019975729
0.0002109734
0.00022281635
0.00023532112
0.00024852471
0.00026246613
0.00027718661
0.00029272963
0.00030914115
0.00032646965
0.00034476635
0.00036408529
0.00038448355
0.00040602138
0.00042876239
0.00045277373
0.0004781263
0.00050489494
0.00053315867
0.0005630009
0.00059450968
0.00062777797
0.0006629039
0.00069999104
0.00073914875
0.00078049245
0.00082414397
0.00087023192
0.00091889205
0.00097026763
0.0010245099
0.0010817785
0.0011422418
0.0012060777
0.0012734739
0.0013446283
0.0014197499
0.0014990594
0.0015827894
0.0016711855
0.0017645069
0.0018630269
0.0019670342
0.0020768329
0.0021927443
0.0023151071
0.0024442787
0.0025806359
0.0027245765
0.0028765197
0.0030369078
0.0032062072
0.0033849097
0.003573534
0.0037726268
0.0039827645
0.0042045549
0.0044386383
0.0046856899
0.0049464211
0.0052215815
0.005511961
0.0058183916
0.0061417498
0.0064829586
0.0068429902
0.0072228679
0.0076236692
0.008046528
0.0084926377
0.008963254
0.0094596975
0.0099833574
0.010535694
0.011118243
0.011732618
0.012380515
0.013063713
0.013784083
0.014543588
0.015344287
0.016188342
0.017078017
0.018015689
0.019003845
0.020045091
0.021142155
0.022297891
0.023515285
0.024797455
0.026147659
0.027569298
0.02906592
0.030641223
0.032299059
0.034043437
0.035878526
0.037808657
0.039838326
0.041972195
0.044215091
0.04657201
0.049048112
0.051648723
0.05437933
0.057245579
0.060253268
0.063408345
0.066716894
0.070185131
0.073819391
0.077626115
0.081611834
0.085783154
0.090146736
0.094709273
0.099477468
0.104458
0.10965752
0.11508256
0.12073959
0.12663487
0.13277451
0.13916436
0.14581
0.15271667
0.15988922
0.16733208
0.17504919
0.18304393
0.19131909
0.19987679
0.20871844
0.21784468
0.22725533
0.23694931
0.24692463
0.25717832
0.26770639
0.27850383
0.28956451
0.30088124
0.31244569
0.32424843
0.33627893
0.34852554
0.36097554
0.3736152
0.38642977
0.39940358
0.41252009
0.42576196
0.43911117
0.45254906
0.46605646
0.47961382
0.49320126
0.50679874
0.52038618
0.53394354
0.54745094
0.56088883
0.57423804
0.58747991
0.60059642
0.61357023
0.6263848
0.63902446
0.65147446
0.66372107
0.67575157
0.68755431
0.69911876
0.71043549
0.72149617
0.73229361
0.74282168
0.75307537
0.76305069
0.77274467
0.78215532
0.79128156
0.80012321
0.80868091
0.81695607
0.82495081
0.83266792
0.84011078
0.84728333
0.85419
0.86083564
0.86722549
0.87336513
0.87926041
0.88491744
0.89034248
0.895542
0.90052253
0.90529073
0.90985326
0.91421685
0.91838817
0.92237389
0.92618061
0.92981487
0.93328311
0.93659166
0.93974673
0.94275442
0.94562067
0.94835128
0.95095189
0.95342799
0.95578491
0.9580278
0.96016167
0.96219134
0.96412147
0.96595656
0.96770094
0.96935878
0.97093408
0.9724307
0.97385234
0.97520255
0.97648472
0.97770211
0.97885785
0.97995491
0.98099616
0.98198431
0.98292198
0.98381166
0.98465571
0.98545641
0.98621592
0.98693629
0.98761949
0.98826738
0.98888176
0.98946431
0.99001664
0.9905403
0.99103675
0.99150736
0.99195347
0.99237633
0.99277713
0.99315701
0.99351704
0.99385825
0.99418161
0.99448804
0.99477842
0.99505358
0.99531431
0.99556136
0.99579545
0.99601724
0.99622737
0.99642647
0.99661509
0.99679379
0.99696309
0.99712348
0.99727542
0.99741936
0.99755572
0.99768489
0.99780726
0.99792317
0.99803297
0.99813697
0.99823549
0.99832881
0.99841721
0.99850094
0.99858025
0.99865537
0.99872653
0.99879392
0.99885776
0.99891822
0.99897549
0.99902973
0.99908111
0.99912977
0.99917586
0.99921951
0.99926085
0.99930001
0.9993371
0.99937222
0.99940549
0.999437
0.99946684
0.99949511
0.99952187
0.99954723
0.99957124
0.99959398
0.99961552
0.99963591
0.99965523
0.99967353
0.99969086
0.99970727
0.99972281
0.99973753
0.99975148
0.99976468
0.99977718
0.99978903
0.99980024
0.99981087
0.99982093
0.99983045
0.99983948
0.99984802
0.99985612
0.99986378
0.99987104
0.99987791
0.99988443
0.99989059
0.99989643
0.99990196
0.9999072
0.99991216
0.99991686
0.99992131
0.99992552
0.99992951
0.99993329
0.99993687
0.99994026
0.99994347
0.99994651
0.99994939
0.99995212
0.9999547
0.99995715
0.99995946
0.99996166
0.99996373
0.9999657
0.99996757
0.99996933
0.999971
0.99997258
0.99997408
0.9999755
0.99997685
0.99997812
0.99997933
0.99998047
0.99998155
0.99998257
0.99998354
0.99998446
0.99998533
0.99998616
0.99998694
0.99998768
0.99998838
0.99998904
0.99998967
0.99999026
0.99999082
0.99999136
0.99999186
0.99999234
0.99999279
0.99999322
0.99999363
0.99999401
0.99999438
0.99999472
0.99999505
0.99999536
0.99999565
0.99999593
0.99999619
0.99999644
0.99999668
0.9999969
0.99999711
0.99999731
0.9999975
0.99999768
0.99999785
0.99999801
0.99999817
0.99999831
0.99999845
0.99999858
0.9999987
0.99999882
0.99999893
0.99999903
0.99999913
0.99999922
0.99999931
0.99999939
0.99999947
0.99999955
0.99999962
0.99999969
0.99999975
0.99999981
0.99999987
0.99999992
0.99999997
2.5e-08
7.6397755e-08
1.3066917e-07
1.8797491e-07
2.4848463e-07
3.1237746e-07
3.7984255e-07
4.5107962e-07
5.2629957e-07
6.0572508e-07
6.8959129e-07
7.7814646e-07
8.7165277e-07
9.7038703e-07
1.0746415e-06
1.1847249e-06
1.3009631e-06
1.4237001e-06
1.5532994e-06
1.6901446e-06
1.8346408e-06
1.9872157e-06
2.1483212e-06
2.318434e-06
2.4980579e-06
2.6877245e-06
2.8879954e-06
3.0994633e-06
3.3227545e-06
3.5585298e-06
3.8074872e-06
4.0703638e-06
4.3479378e-06
4.6410309e-06
4.9505107e-06
5.2772934e-06
5.6223464e-06
5.9866912e-06
6.3714064e-06
6.7776307e-06
7.2065669e-06
7.6594846e-06
8.1377247e-06
8.6427028e-06
9.1759138e-06
9.7389363e-06
1.0333437e-05
1.0961175e-05
1.162401e-05
1.2323903e-05
1.3062926e-05
1.3843267e-05
1.4667236e-05
1.5537272e-05
1.645595e-05
1.742599e-05
1.8450263e-05
1.9531801e-05
2.0673806e-05
2.1879658e-05
2.3152926e-05
2.449738e-05
2.5916999e-05
2.7415984e-05
2.8998774e-05
3.0670052e-05
3.2434766e-05
3.4298139e-05
3.6265686e-05
3.8343231e-05
4.0536923e-05
4.2853254e-05
4.5299081e-05
4.7881642e-05
5.060858e-05
5.3487965e-05
5.6528321e-05
5.9738643e-05
6.3128433e-05
6.6707723e-05
7.0487104e-05
7.447776e-05
7.8691501e-05
8.3140794e-05
8.7838807e-05
9.2799438e-05
9.8037367e-05
0.00010356809
0.00010940797
0.00011557429
0.00012208528
0.00012896022
0.00013621943
0.0001438844
0.00015197778
0.00016052353
0.00016954691
0.00017907462
0.00018913483
0.00019975729
0.0002109734
0.00022281635
0.00023532112
0.00024852471
0.00026246613
0.00027718661
0.00029272963
0.00030914115
0.00032646965
0.00034476635
0.00036408529
0.00038448355
0.00040602138
0.00042876239
0.00045277373
0.0004781263
0.00050489494
0.00053315867
0.0005630009
0.00059450968
0.00062777797
0.0006629039
0.00069999104
0.00073914875
0.00078049245
0.00082414397
0.00087023192
0.00091889205
0.00097026763
0.0010245099
0.0010817785
0.0011422418
0.0012060777
0.0012734739
0.0013446283
0.0014197499
0.0014990594
0.0015827894
0.0016711855
0.0017645069
0.0018630269
0.0019670342
0.0020768329
0.0021927443
0.0023151071
0.0024442787
0.0025806359
0.0027245765
0.0028765197
0.0030369078
0.0032062072
0.0033849097
0.003573534
0.0037726268
0.0039827645
0.0042045549
0.0044386383
0.0046856899
0.0049464211
0.0052215815
0.005511961
0.0058183916
0.0061417498
0.0064829586
0.0068429902
0.0072228679
0.0076236692
0.008046528
0.0084926377
0.008963254
0.0094596975
0.0099833574
0.010535694
0.011118243
0.011732618
0.012380515
0.013063713
0.013784083
0.014543588
0.015344287
0.016188342
0.017078017
0.018015689
0.019003845
0.020045091
0.021142155
0.022297891
0.023515285
0.024797455
0.026147659
0.027569298
0.02906592
0.030641223
0.032299059
0.034043437
0.035878526
0.037808657
0.039838326
0.041972195
0.044215091
0.04657201
0.049048112
0.051648723
0.05437933
0.057245579
0.060253268
0.063408345
0.066716894
0.070185131
0.073819391
0.077626115
0.081611834
0.085783154
0.090146736
0.094709273
0.099477468
0.104458
0.10965752
0.11508256
0.12073959
0.12663487
0.13277451
0.13916436
0.14581
0.15271667
0.15988922
0.16733208
0.17504919
0.18304393
0.19131909
0.19987679
0.20871844
0.21784468
0.22725533
0.23694931
0.24692463
0.25717832
0.26770639
0.27850383
0.28956451
0.30088124
0.31244569
0.32424843
0.33627893
0.34852554
0.36097554
0.3736152
0.38642977
0.39940358
0.41252009
0.42576196
0.43911117
0.45254906
0.46605646
0.47961382
0.49320126
0.50679874
0.52038618
0.53394354
0.54745094
0.56088883
0.57423804
0.58747991
0.60059642
0.61357023
0.6263848
0.63902446
0.65147446
0.66372107
0.67575157
0.68755431
0.69911876
0.71043549
0.72149617
0.73229361
0.74282168
0.75307537
0.76305069
0.77274467
0.78215532
0.79128156
0.80012321
0.80868091
0.81695607
0.82495081
0.83266792
0.84011078
0.84728333
0.85419
0.86083564
0.86722549
0.87336513
0.87926041
0.88491744
0.89034248
0.895542
0.90052253
0.90529073
0.90985326
0.91421685
0.91838817
0.92237389
0.92618061
0.92981487
0.93328311
0.93659166
0.93974673
0.94275442
0.94562067
0.94835128
0.95095189
0.95342799
0.95578491
0.9580278
0.96016167
0.96219134
0.96412147
0.96595656
0.96770094
0.96935878
0.97093408
0.9724307
0.97385234
0.97520255
0.97648472
0.97770211
0.97885785
0.97995491
0.98099616
0.98198431
0.98292198
0.98381166
0.98465571
0.98545641
0.98621592
0.98693629
0.98761949
0.98826738
0.98888176
0.98946431
0.99001664
0.9905403
0.99103675
0.99150736
0.99195347
0.99237633
0.99277713
0.99315701
0.99351704
0.99385825
0.99418161
0.99448804
0.99477842
0.99505358
0.99531431
0.99556136
0.99579545
0.99601724
0.99622737
0.99642647
0.99661509
0.99679379
0.99696309
0.99712348
0.99727542
0.99741936
0.99755572
0.99768489
0.99780726
0.99792317
0.99803297
0.99813697
0.99823549
0.99832881
0.99841721
0.99850094
0.99858025
0.99865537
0.99872653
0.99879392
0.99885776
0.99891822
0.99897549
0.99902973
0.99908111
0.99912977
0.99917586
0.99921951
0.99926085
0.99930001
0.9993371
0.99937222
0.99940549
0.999437
0.99946684
0.99949511
0.99952187
0.99954723
0.99957124
0.99959398
0.99961552
0.99963591
0.99965523
0.99967353
0.99969086
0.99970727
0.99972281
0.99973753
0.99975148
0.99976468
0.99977718
0.99978903
0.99980024
0.99981087
0.99982093
0.99983045
0.99983948
0.99984802
0.99985612
0.99986378
0.99987104
0.99987791
0.99988443
0.99989059
0.99989643
0.99990196
0.9999072
0.99991216
0.99991686
0.99992131
0.99992552
0.99992951
0.99993329
0.99993687
0.99994026
0.99994347
0.99994651
0.99994939
0.99995212
0.9999547
0.99995715
0.99995946
0.99996166
0.99996373
0.9999657
0.99996757
0.99996933
0.999971
0.99997258
0.99997408
0.9999755
0.99997685
0.99997812
0.99997933
0.99998047
0.99998155
0.99998257
0.99998354
0.99998446
0.99998533
0.99998616
0.99998694
0.99998768
0.99998838
0.99998904
0.99998967
0.99999026
0.99999082
0.99999136
0.99999186
0.99999234
0.99999279
0.99999322
0.99999363
0.99999401
0.99999438
0.99999472
0.99999505
0.99999536
0.99999565
0.99999593
0.99999619
0.99999644
0.99999668
0.9999969
0.99999711
0.99999731
0.9999975
0.99999768
0.99999785
0.99999801
0.99999817
0.99999831
0.99999845
0.99999858
0.9999987
0.99999882
0.99999893
0.99999903
0.99999913
0.99999922
0.99999931
0.99999939
0.99999947
0.99999955
0.99999962
0.99999969
0.99999975
0.99999981
0.99999987
0.99999992
0.99999997
2.5e-08
7.6397755e-08
1.3066917e-07
1.8797491e-07
2.4848463e-07
3.1237746e-07
3.7984255e-07
4.5107962e-07
5.2629957e-07
6.0572508e-07
6.8959129e-07
7.7814646e-07
8.7165277e-07
9.7038703e-07
1.0746415e-06
1.1847249e-06
1.3009631e-06
1.4237001e-06
1.5532994e-06
1.6901446e-06
1.8346408e-06
1.9872157e-06
2.1483212e-06
2.318434e-06
2.4980579e-06
2.6877245e-06
2.8879954e-06
3.0994633e-06
3.3227545e-06
3.5585298e-06
3.8074872e-06
4.0703638e-06
4.3479378e-06
4.6410309e-06
4.9505107e-06
5.2772934e-06
5.6223464e-06
5.9866912e-06
6.3714064e-06
6.7776307e-06
7.2065669e-06
7.6594846e-06
8.1377247e-06
8.6427028e-06
9.1759138e-06
9.7389363e-06
1.0333437e-05
1.0961175e-05
1.162401e-05
1.2323903e-05
1.3062926e-05
1.3843267e-05
1.4667236e-05
1.5537272e-05
1.645595e-05
1.742599e-05
1.8450263e-05
1.9531801e-05
2.0673806e-05
2.1879658e-05
2.3152926e-05
2.449738e-05
2.5916999e-05
2.7415984e-05
2.8998774e-05
3.0670052e-05
3.2434766e-05
3.4298139e-05
3.6265686e-05
3.8343231e-05
4.0536923e-05
4.2853254e-05
4.5299081e-05
4.7881642e-05
5.060858e-05
5.3487965e-05
5.6528321e-05
5.9738643e-05
6.3128433e-05
6.6707723e-05
7.0487104e-05
7.447776e-05
7.8691501e-05
8.3140794e-05
8.7838807e-05
9.2799438e-05
9.8037367e-05
0.00010356809
0.00010940797
0.00011557429
0.00012208528
0.00012896022
0.00013621943
0.0001438844
0.00015197778
0.00016052353
0.00016954691
0.00017907462
0.00018913483
0.00019975729
0.0002109734
0.00022281635
0.00023532112
0.00024852471
0.00026246613
0.00027718661
0.00029272963
0.00030914115
0.00032646965
0.00034476635
0.00036408529
0.00038448355
0.00040602138
0.00042876239
0.00045277373
0.0004781263
0.00050489494
0.00053315867
0.0005630009
0.00059450968
0.00062777797
0.0006629039
0.00069999104
0.00073914875
0.00078049245
0.00082414397
0.00087023192
0.00091889205
0.00097026763
0.0010245099
0.0010817785
0.0011422418
0.0012060777
0.0012734739
0.0013446283
0.0014197499
0.0014990594
0.0015827894
0.0016711855
0.0017645069
0.0018630269
0.0019670342
0.0020768329
0.0021927443
0.0023151071
0.0024442787
0.0025806359
0.0027245765
0.0028765197
0.0030369078
0.0032062072
0.0033849097
0.003573534
0.0037726268
0.0039827645
0.0042045549
0.0044386383
0.0046856899
0.0049464211
0.0052215815
0.005511961
0.0058183916
0.0061417498
0.0064829586
0.0068429902
0.0072228679
0.0076236692
0.008046528
0.0084926377
0.008963254
0.0094596975
0.0099833574
0.010535694
0.011118243
0.011732618
0.012380515
0.013063713
0.013784083
0.014543588
0.015344287
0.016188342
0.017078017
0.018015689
0.019003845
0.020045091
0.021142155
0.022297891
0.023515285
0.024797455
0.026147659
0.027569298
0.02906592
0.030641223
0.032299059
0.034043437
0.035878526
0.037808657
0.039838326
0.041972195
0.044215091
0.04657201
0.049048112
0.051648723
0.05437933
0.057245579
0.060253268
0.063408345
0.066716894
0.070185131
0.073819391
0.077626115
0.081611834
0.085783154
0.090146736
0.094709273
0.099477468
0.104458
0.10965752
0.11508256
0.12073959
0.12663487
0.13277451
0.13916436
0.14581
0.15271667
0.15988922
0.16733208
0.17504919
0.18304393
0.19131909
0.19987679
0.20871844
0.21784468
0.22725533
0.23694931
0.24692463
0.25717832
0.26770639
0.27850383
0.28956451
0.30088124
0.31244569
0.32424843
0.33627893
0.34852554
0.36097554
0.3736152
0.38642977
0.39940358
0.41252009
0.42576196
0.43911117
0.45254906
0.46605647
0.47961382
0.49320126
0.50679874
0.52038618
0.53394354
0.54745094
0.56088883
0.57423804
0.58747991
0.60059642
0.61357023
0.6263848
0.63902446
0.65147446
0.66372107
0.67575157
0.68755431
0.69911876
0.71043549
0.72149617
0.73229361
0.74282168
0.75307537
0.76305069
0.77274467
0.78215532
0.79128156
0.80012321
0.80868091
0.81695607
0.82495081
0.83266792
0.84011078
0.84728333
0.85419
0.86083564
0.86722549
0.87336513
0.87926041
0.88491744
0.89034248
0.895542
0.90052253
0.90529073
0.90985326
0.91421685
0.91838817
0.92237389
0.92618061
0.92981487
0.93328311
0.93659166
0.93974673
0.94275442
0.94562067
0.94835128
0.95095189
0.95342799
0.95578491
0.9580278
0.96016167
0.96219134
0.96412147
0.96595656
0.96770094
0.96935878
0.97093408
0.9724307
0.97385234
0.97520255
0.97648472
0.97770211
0.97885785
0.97995491
0.98099616
0.98198431
0.98292198
0.98381166
0.98465571
0.98545641
0.98621592
0.98693629
0.98761949
0.98826738
0.98888176
0.98946431
0.99001664
0.9905403
0.99103675
0.99150736
0.99195347
0.99237633
0.99277713
0.99315701
0.99351704
0.99385825
0.99418161
0.99448804
0.99477842
0.99505358
0.99531431
0.99556136
0.99579545
0.99601724
0.99622737
0.99642647
0.99661509
0.99679379
0.99696309
0.99712348
0.99727542
0.99741936
0.99755572
0.99768489
0.99780726
0.99792317
0.99803297
0.99813697
0.99823549
0.99832881
0.99841721
0.99850094
0.99858025
0.99865537
0.99872653
0.99879392
0.99885776
0.99891822
0.99897549
0.99902973
0.99908111