/*--------------------------------*- C++ -*----------------------------------*\
| =========                 |                                                 |
| \\      /  F ield         | OpenFOAM: The Open Source CFD Toolbox           |
|  \\    /   O peration     | Version:  2112                                  |
|   \\  /    A nd           | Website:  www.openfoam.com                      |
|    \\/     M anipulation  |                                                 |
\*---------------------------------------------------------------------------*/
FoamFile
{
    version     2.0;
    format      ascii;
    arch        "LSB;label=32;scalar=64";
    class       volScalarField;
    location    "4416";
    object      nut;
}
// * * * * * * * * * * * * * * * * * * * * * * * * * * * * * * * * * * * * * //

dimensions      [0 2 -1 0 0 0 0];

internalField   nonuniform List<scalar> 
81920
(
1.1172203e-16
9.7430297e-15
8.3378312e-14
3.5706145e-13
1.090225e-12
2.7227037e-12
5.9517568e-12
1.1835148e-11
2.1927972e-11
3.8462949e-11
6.4586405e-11
1.0466519e-10
1.6468342e-10
2.5275223e-10
3.7976059e-10
5.6020097e-10
8.1320924e-10
1.1638644e-09
1.6447985e-09
2.2981717e-09
3.1780651e-09
4.35334e-09
5.9109956e-09
7.9600239e-09
1.063571e-08
1.4104241e-08
1.8567351e-08
2.4266576e-08
3.1486456e-08
4.0555808e-08
5.1845996e-08
6.5765131e-08
8.2747283e-08
1.0323634e-07
1.2766495e-07
1.5642988e-07
1.8986626e-07
2.2822399e-07
2.7164967e-07
3.2017751e-07
3.7373108e-07
4.3213641e-07
4.9514457e-07
5.6246077e-07
6.3377569e-07
7.0879515e-07
7.8726491e-07
8.6898885e-07
9.5383992e-07
1.0417646e-06
1.1327819e-06
1.2269791e-06
1.3245047e-06
1.4255609e-06
1.5303961e-06
1.6392975e-06
1.7525853e-06
1.8706077e-06
1.9937374e-06
2.1223684e-06
2.2569146e-06
2.3978082e-06
2.5455e-06
2.7004589e-06
2.8631729e-06
3.0341495e-06
3.213917e-06
3.4030259e-06
3.6020503e-06
3.8115892e-06
4.0322688e-06
4.2647435e-06
4.5096984e-06
4.767851e-06
5.0399531e-06
5.3267928e-06
5.6291971e-06
5.9480335e-06
6.2842124e-06
6.6386898e-06
7.0124692e-06
7.4066042e-06
7.8222012e-06
8.2604217e-06
8.7224853e-06
9.209672e-06
9.7233254e-06
1.0264855e-05
1.083574e-05
1.1437531e-05
1.2071854e-05
1.2740413e-05
1.3444993e-05
1.4187463e-05
1.496978e-05
1.579399e-05
1.6662232e-05
1.7576742e-05
1.8539853e-05
1.9554001e-05
2.0621723e-05
2.1745665e-05
2.2928579e-05
2.4173326e-05
2.5482879e-05
2.686032e-05
2.8308847e-05
2.9831764e-05
3.1432491e-05
3.3114553e-05
3.4881585e-05
3.6737323e-05
3.8685604e-05
4.0730357e-05
4.2875601e-05
4.5125433e-05
4.7484022e-05
4.9955598e-05
5.2544439e-05
5.5254859e-05
5.8091193e-05
6.1057779e-05
6.4158943e-05
6.7398977e-05
7.0782118e-05
7.4312525e-05
7.7994255e-05
8.1831236e-05
8.5827244e-05
8.9985867e-05
9.431048e-05
9.8804216e-05
0.00010346993
0.00010831016
0.0001133271
0.00011852258
0.000123898
0.0001294543
0.00013519194
0.00014111084
0.00014721035
0.0001534892
0.00015994547
0.0001665765
0.0001733789
0.00018034847
0.00018748011
0.00019476783
0.00020220465
0.00020978254
0.00021749235
0.00022532375
0.00023326517
0.00024130371
0.00024942505
0.00025761342
0.00026585149
0.00027412028
0.00028239914
0.00029066561
0.00029889539
0.00030706228
0.00031513808
0.00032309258
0.00033089347
0.00033850634
0.00034589465
0.0003530197
0.00035984065
0.00036631457
0.00037239645
0.00037803929
0.00038319423
0.00038781066
0.0003918364
0.00039521794
0.0003979007
0.00039982935
0.00040094821
0.0004012017
0.00040053486
0.00039889397
0.00039622729
0.00039248579
0.00038762415
0.00038160173
0.00037438372
0.00036594247
0.00035625885
0.00034532383
0.00033314016
0.00031972417
0.0003051077
0.00028934011
0.00027249035
0.00025464902
0.00023593035
0.00021647392
0.00019644602
0.0001760402
0.00015547663
0.00013499994
0.0001148781
9.5451691e-05
7.8114874e-05
6.2335761e-05
4.8202279e-05
3.5840299e-05
2.5383953e-05
1.694702e-05
1.0573126e-05
6.1614203e-06
3.4036149e-06
1.8168549e-06
9.1664709e-07
4.3877179e-07
2.4138288e-07
1.714941e-07
1.4640667e-07
1.3701168e-07
1.3320961e-07
1.3139021e-07
1.3033936e-07
1.2973312e-07
1.2969685e-07
1.2973834e-07
1.2972606e-07
1.2965447e-07
1.2956311e-07
1.2949097e-07
1.2945281e-07
1.2944445e-07
1.2945334e-07
1.2946584e-07
1.2947342e-07
1.2947444e-07
1.2947125e-07
1.2946704e-07
1.2946372e-07
1.2946155e-07
1.2945991e-07
1.2945818e-07
1.2945614e-07
1.294539e-07
1.294516e-07
1.294493e-07
1.2944698e-07
1.2944463e-07
1.2944223e-07
1.2943979e-07
1.2943733e-07
1.2943484e-07
1.2943232e-07
1.2942978e-07
1.294272e-07
1.2942425e-07
1.2942425e-07
1.294272e-07
1.2942978e-07
1.2943232e-07
1.2943484e-07
1.2943733e-07
1.2943979e-07
1.2944223e-07
1.2944463e-07
1.2944698e-07
1.294493e-07
1.294516e-07
1.294539e-07
1.2945614e-07
1.2945818e-07
1.2945991e-07
1.2946155e-07
1.2946372e-07
1.2946704e-07
1.2947125e-07
1.2947444e-07
1.2947342e-07
1.2946584e-07
1.2945334e-07
1.2944445e-07
1.2945281e-07
1.2949097e-07
1.2956311e-07
1.2965447e-07
1.2972607e-07
1.2973834e-07
1.2969685e-07
1.2973312e-07
1.3033936e-07
1.3139021e-07
1.3320961e-07
1.3701169e-07
1.4640667e-07
1.714941e-07
2.4138287e-07
4.3877177e-07
9.1664704e-07
1.8168548e-06
3.4036148e-06
6.16142e-06
1.0573126e-05
1.6947019e-05
2.5383952e-05
3.5840298e-05
4.8202277e-05
6.233576e-05
7.8114872e-05
9.5451689e-05
0.0001148781
0.00013499994
0.00015547663
0.00017604019
0.00019644602
0.00021647392
0.00023593034
0.00025464902
0.00027249034
0.0002893401
0.00030510769
0.00031972417
0.00033314016
0.00034532383
0.00035625884
0.00036594246
0.00037438372
0.00038160172
0.00038762415
0.00039248579
0.00039622729
0.00039889397
0.00040053485
0.0004012017
0.00040094821
0.00039982935
0.00039790069
0.00039521794
0.00039183639
0.00038781066
0.00038319423
0.00037803929
0.00037239645
0.00036631457
0.00035984065
0.0003530197
0.00034589465
0.00033850634
0.00033089347
0.00032309258
0.00031513808
0.00030706228
0.00029889539
0.0002906656
0.00028239913
0.00027412028
0.00026585149
0.00025761342
0.00024942505
0.0002413037
0.00023326517
0.00022532375
0.00021749235
0.00020978254
0.00020220465
0.00019476783
0.00018748011
0.00018034847
0.0001733789
0.0001665765
0.00015994547
0.0001534892
0.00014721035
0.00014111084
0.00013519194
0.0001294543
0.000123898
0.00011852258
0.0001133271
0.00010831016
0.00010346993
9.8804215e-05
9.4310479e-05
8.9985867e-05
8.5827245e-05
8.1831236e-05
7.7994253e-05
7.4312523e-05
7.0782118e-05
6.7398977e-05
6.4158944e-05
6.1057779e-05
5.809119e-05
5.5254856e-05
5.2544439e-05
4.99556e-05
4.7484023e-05
4.5125433e-05
4.2875603e-05
4.0730358e-05
3.8685601e-05
3.6737323e-05
3.4881586e-05
3.3114553e-05
3.143249e-05
2.9831764e-05
2.8308848e-05
2.686032e-05
2.548288e-05
2.417333e-05
2.2928581e-05
2.1745666e-05
2.0621723e-05
1.9554002e-05
1.8539855e-05
1.7576745e-05
1.6662236e-05
1.5793992e-05
1.4969782e-05
1.4187464e-05
1.344499e-05
1.2740411e-05
1.2071855e-05
1.1437532e-05
1.0835738e-05
1.0264851e-05
9.7233237e-06
9.2096732e-06
8.7224847e-06
8.2604223e-06
7.8222011e-06
7.4066032e-06
7.0124688e-06
6.6386876e-06
6.2842141e-06
5.9480342e-06
5.6291951e-06
5.3267913e-06
5.0399501e-06
4.7678468e-06
4.5096953e-06
4.264743e-06
4.0322715e-06
3.8115911e-06
3.6020517e-06
3.403027e-06
3.2139153e-06
3.0341493e-06
2.8631756e-06
2.7004605e-06
2.5455001e-06
2.3978103e-06
2.256917e-06
2.1223676e-06
1.9937368e-06
1.8706076e-06
1.7525838e-06
1.6392986e-06
1.5303961e-06
1.4255584e-06
1.3245004e-06
1.226977e-06
1.1327848e-06
1.0417642e-06
9.5383864e-07
8.6899204e-07
7.8726664e-07
7.0879696e-07
6.3378052e-07
5.6246041e-07
4.9514129e-07
4.3213841e-07
3.7373528e-07
3.2017987e-07
2.7164893e-07
2.2822494e-07
1.8986663e-07
1.5643048e-07
1.2766823e-07
1.0323776e-07
8.2748078e-08
6.5767187e-08
5.1846618e-08
4.0554563e-08
3.14863e-08
2.4267657e-08
1.8567463e-08
1.4103747e-08
1.0635581e-08
7.960238e-09
5.9113063e-09
4.3536353e-09
3.1781283e-09
2.298201e-09
1.6448011e-09
1.163864e-09
8.1330113e-10
5.6024823e-10
3.7977252e-10
2.5276571e-10
1.6468133e-10
1.0466709e-10
6.4589667e-11
3.8456582e-11
2.1928043e-11
1.1837286e-11
5.9522239e-12
2.7234896e-12
1.0904947e-12
3.5687221e-13
8.3329393e-14
9.7441747e-15
1.1172203e-16
7.5093655e-17
6.5488272e-15
5.6043991e-14
2.4000904e-13
7.328451e-13
1.8302538e-12
4.0010628e-12
7.9566205e-12
1.4742975e-11
2.5862453e-11
4.3432986e-11
7.039568e-11
1.1078369e-10
1.7006862e-10
2.5560437e-10
3.7719259e-10
5.4779889e-10
7.8445411e-10
1.1093806e-09
1.5513887e-09
2.1475917e-09
2.9454916e-09
4.0054819e-09
5.4038057e-09
7.2359867e-09
9.6207099e-09
1.2704067e-08
1.6663988e-08
2.1714536e-08
2.8109576e-08
3.6145107e-08
4.6159354e-08
5.8529607e-08
7.3664831e-08
9.1993376e-08
1.1394569e-07
1.3993275e-07
1.7032188e-07
2.0541255e-07
2.4541528e-07
2.9043713e-07
3.4047635e-07
3.9542777e-07
4.5509858e-07
5.1923238e-07
5.8753822e-07
6.597206e-07
7.3550687e-07
8.1466941e-07
8.9704113e-07
9.8252425e-07
1.0710931e-06
1.1627922e-06
1.2577314e-06
1.356079e-06
1.4580545e-06
1.5639209e-06
1.6739791e-06
1.7885614e-06
1.908028e-06
2.0327629e-06
2.1631721e-06
2.2996821e-06
2.4427386e-06
2.5928071e-06
2.7503729e-06
2.9159418e-06
3.0900413e-06
3.2732219e-06
3.4660586e-06
3.6691526e-06
3.8831334e-06
4.1086602e-06
4.3464248e-06
4.5971531e-06
4.8616078e-06
5.1405907e-06
5.4349453e-06
5.7455594e-06
6.073368e-06
6.419356e-06
6.7845615e-06
7.1700789e-06
7.5770619e-06
8.0067277e-06
8.4603602e-06
8.9393139e-06
9.4450181e-06
9.9789811e-06
1.0542795e-05
1.113814e-05
1.1766789e-05
1.2430614e-05
1.3131591e-05
1.3871806e-05
1.4653459e-05
1.5478874e-05
1.6350504e-05
1.7270936e-05
1.8242903e-05
1.9269285e-05
2.0353124e-05
2.1497629e-05
2.2706184e-05
2.3982359e-05
2.532992e-05
2.6752837e-05
2.8255294e-05
2.9841704e-05
3.1516714e-05
3.3285222e-05
3.5152384e-05
3.7123631e-05
3.9204676e-05
4.1401532e-05
4.372052e-05
4.6168283e-05
4.8751802e-05
5.1478403e-05
5.4355774e-05
5.7391975e-05
6.0595448e-05
6.397503e-05
6.753996e-05
7.1299889e-05
7.5264885e-05
7.944544e-05
8.3852467e-05
8.8497304e-05
9.3391708e-05
9.8547848e-05
0.00010397829
0.00010969598
0.00011571424
0.00012204668
0.00012870726
0.00013571015
0.00014306972
0.00015080051
0.00015891709
0.00016743403
0.00017636583
0.00018572675
0.00019553077
0.00020579144
0.00021652176
0.00022773405
0.0002394398
0.00025164955
0.00026437269
0.00027761738
0.00029139032
0.00030569666
0.00032053981
0.0003359213
0.00035184065
0.0003682952
0.00038527996
0.0004027875
0.00042080775
0.00043932788
0.00045833213
0.0004778016
0.00049771412
0.00051804399
0.0005387618
0.00055983415
0.00058122343
0.0006028875
0.00062477944
0.00064684722
0.00066903337
0.00069127469
0.00071350189
0.0007356393
0.00075760452
0.00077930813
0.00080065344
0.00082153621
0.00084184444
0.00086145824
0.00088024968
0.00089808283
0.00091481372
0.00093029059
0.00094435412
0.00095683789
0.00096756893
0.00097636857
0.00098305344
0.00098743677
0.00098933001
0.00098854479
0.00098489529
0.00097820108
0.00096829048
0.00095500447
0.0009382013
0.00091776176
0.00089359522
0.00086564654
0.0008339039
0.00079840757
0.00075926
0.00071663643
0.0006707772
0.0006220028
0.00057072161
0.00051743605
0.00046274568
0.0004073459
0.00035201983
0.00029762215
0.00024505522
0.0001952364
0.0001490712
0.00010909068
7.4938393e-05
4.7127011e-05
2.6158883e-05
1.2281528e-05
4.8545134e-06
1.7522664e-06
5.6865525e-07
2.236651e-07
1.5166203e-07
1.3548719e-07
1.3133091e-07
1.2998791e-07
1.2973025e-07
1.2970282e-07
1.2965967e-07
1.2959219e-07
1.2953426e-07
1.2950483e-07
1.294996e-07
1.2950552e-07
1.29511e-07
1.2951099e-07
1.2950651e-07
1.2950052e-07
1.2949508e-07
1.2949057e-07
1.2948643e-07
1.2948214e-07
1.2947756e-07
1.2947281e-07
1.2946801e-07
1.2946318e-07
1.2945831e-07
1.2945339e-07
1.2944841e-07
1.294434e-07
1.2943835e-07
1.2943326e-07
1.2942639e-07
1.2942639e-07
1.2943326e-07
1.2943835e-07
1.294434e-07
1.2944841e-07
1.2945339e-07
1.2945831e-07
1.2946318e-07
1.2946801e-07
1.2947281e-07
1.2947756e-07
1.2948214e-07
1.2948643e-07
1.2949057e-07
1.2949508e-07
1.2950052e-07
1.2950651e-07
1.2951099e-07
1.29511e-07
1.2950552e-07
1.294996e-07
1.2950482e-07
1.2953426e-07
1.2959219e-07
1.2965967e-07
1.2970282e-07
1.2973026e-07
1.2998792e-07
1.3133094e-07
1.3548722e-07
1.5166202e-07
2.2366496e-07
5.6865459e-07
1.7522647e-06
4.8545092e-06
1.2281519e-05
2.6158866e-05
4.7126987e-05
7.4938361e-05
0.00010909064
0.00014907115
0.00019523635
0.00024505516
0.00029762208
0.00035201976
0.00040734582
0.0004627456
0.00051743597
0.00057072153
0.00062200271
0.00067077712
0.00071663635
0.00075925993
0.0007984075
0.00083390383
0.00086564647
0.00089359515
0.00091776169
0.00093820124
0.00095500441
0.00096829042
0.00097820102
0.00098489523
0.00098854474
0.00098932996
0.00098743672
0.00098305339
0.00097636853
0.00096756889
0.00095683785
0.00094435409
0.00093029056
0.00091481369
0.0008980828
0.00088024966
0.00086145821
0.00084184441
0.00082153618
0.00080065342
0.00077930811
0.0007576045
0.00073563928
0.00071350188
0.00069127467
0.00066903335
0.0006468472
0.00062477943
0.00060288749
0.00058122342
0.00055983414
0.00053876179
0.00051804398
0.00049771411
0.00047780159
0.00045833212
0.00043932788
0.00042080774
0.00040278749
0.00038527996
0.00036829519
0.00035184064
0.0003359213
0.0003205398
0.00030569665
0.00029139032
0.00027761738
0.00026437269
0.00025164954
0.0002394398
0.00022773405
0.00021652176
0.00020579144
0.00019553077
0.00018572675
0.00017636582
0.00016743403
0.00015891708
0.0001508005
0.00014306972
0.00013571015
0.00012870726
0.00012204669
0.00011571424
0.00010969598
0.00010397829
9.8547846e-05
9.3391708e-05
8.8497306e-05
8.3852467e-05
7.9445437e-05
7.5264883e-05
7.1299888e-05
6.7539959e-05
6.397503e-05
6.0595448e-05
5.7391973e-05
5.4355771e-05
5.1478403e-05
4.8751804e-05
4.6168284e-05
4.372052e-05
4.1401534e-05
3.9204677e-05
3.7123628e-05
3.5152384e-05
3.3285222e-05
3.1516714e-05
2.9841704e-05
2.8255294e-05
2.6752839e-05
2.532992e-05
2.3982361e-05
2.2706187e-05
2.1497631e-05
2.0353124e-05
1.9269284e-05
1.8242904e-05
1.7270938e-05
1.6350507e-05
1.5478878e-05
1.4653461e-05
1.3871807e-05
1.3131591e-05
1.2430611e-05
1.1766787e-05
1.1138141e-05
1.0542796e-05
9.9789791e-06
9.4450143e-06
8.9393123e-06
8.4603613e-06
8.0067271e-06
7.5770624e-06
7.1700788e-06
6.7845606e-06
6.4193557e-06
6.0733659e-06
5.7455609e-06
5.4349459e-06
5.1405888e-06
4.8616064e-06
4.5971504e-06
4.346421e-06
4.1086574e-06
3.8831329e-06
3.6691551e-06
3.4660603e-06
3.2732232e-06
3.0900423e-06
2.9159403e-06
2.7503727e-06
2.5928096e-06
2.4427401e-06
2.2996822e-06
2.1631741e-06
2.0327652e-06
1.9080272e-06
1.7885608e-06
1.6739789e-06
1.5639196e-06
1.4580555e-06
1.356079e-06
1.257729e-06
1.1627882e-06
1.0710911e-06
9.8252697e-07
8.9704079e-07
8.1466823e-07
7.3550984e-07
6.597222e-07
5.8753989e-07
5.1923676e-07
4.5509827e-07
3.9542489e-07
3.4047808e-07
2.904407e-07
2.4541725e-07
2.0541195e-07
1.7032265e-07
1.3993304e-07
1.1394616e-07
9.1995857e-08
7.3665888e-08
5.8530191e-08
4.6160842e-08
3.6145552e-08
2.8108695e-08
2.1714427e-08
1.6664742e-08
1.2704145e-08
9.6203695e-09
7.2358978e-09
5.4039519e-09
4.0056936e-09
2.9456923e-09
2.1476346e-09
1.5514085e-09
1.1093824e-09
7.8445389e-10
5.4786088e-10
3.7722446e-10
2.5561241e-10
1.700777e-10
1.1078228e-10
7.039696e-11
4.3435181e-11
2.5858171e-11
1.4743023e-11
7.9580584e-12
4.0013769e-12
1.8307822e-12
7.3302644e-13
2.3988183e-13
5.6011111e-14
6.5495969e-15
7.5093658e-17
6.9507266e-17
6.0616385e-15
5.1874633e-14
2.2215339e-13
6.7832359e-13
1.6940864e-12
3.7033892e-12
7.3646629e-12
1.3646155e-11
2.3938495e-11
4.0202229e-11
6.5160075e-11
1.0254603e-10
1.5742644e-10
2.3661157e-10
3.4918034e-10
5.0714544e-10
7.2629125e-10
1.0272223e-09
1.4366655e-09
1.9890724e-09
2.7285735e-09
3.7113306e-09
5.0083292e-09
6.7086356e-09
8.9231077e-09
1.1788499e-08
1.5471808e-08
2.0174605e-08
2.6136899e-08
3.3639926e-08
4.3007006e-08
5.4601512e-08
6.8820933e-08
8.6086277e-08
1.068265e-07
1.3145838e-07
1.6036324e-07
1.9386264e-07
2.3219627e-07
2.7550509e-07
3.2382288e-07
3.7707807e-07
4.3510601e-07
4.9767046e-07
5.6449101e-07
6.352729e-07
7.0973533e-07
7.8763537e-07
8.6878562e-07
9.5306518e-07
1.0404243e-06
1.1308839e-06
1.2245317e-06
1.321516e-06
1.4220383e-06
1.5263461e-06
1.6347261e-06
1.7474988e-06
1.8650132e-06
1.9876432e-06
2.1157853e-06
2.2498565e-06
2.3902936e-06
2.5375525e-06
2.6921087e-06
2.8544577e-06
3.0251161e-06
3.2046225e-06
3.3935395e-06
3.5924549e-06
3.8019833e-06
4.0227687e-06
4.2554857e-06
4.5008422e-06
4.7595816e-06
5.0324846e-06
5.3203725e-06
5.6241091e-06
5.9446034e-06
6.282813e-06
6.6397463e-06
7.016466e-06
7.4140922e-06
7.8338059e-06
8.2768523e-06
8.7445447e-06
9.2382683e-06
9.7594845e-06
1.0309735e-05
1.0890647e-05
1.1503936e-05
1.2151413e-05
1.283499e-05
1.3556685e-05
1.4318624e-05
1.5123054e-05
1.5972346e-05
1.6869001e-05
1.7815658e-05
1.8815103e-05
1.9870274e-05
2.0984275e-05
2.2160376e-05
2.3402031e-05
2.4712882e-05
2.6096772e-05
2.7557754e-05
2.9100106e-05
3.0728337e-05
3.2447202e-05
3.4261718e-05
3.6177173e-05
3.8199142e-05
4.03335e-05
4.2586443e-05
4.4964496e-05
4.7474534e-05
5.0123801e-05
5.2919922e-05
5.5870926e-05
5.8985265e-05
6.227183e-05
6.5739973e-05
6.9399527e-05
7.3260826e-05
7.7334727e-05
8.1632627e-05
8.6166487e-05
9.094885e-05
9.5992863e-05
0.00010131229
0.00010692154
0.00011283566
0.00011907039
0.00012564212
0.00013256796
0.00013986566
0.00014755372
0.0001556513
0.00016417821
0.00017315495
0.00018260265
0.00019254301
0.0002029983
0.00021399126
0.00022554507
0.00023768324
0.00025042951
0.00026380774
0.0002778418
0.00029255538
0.00030797184
0.00032411403
0.0003410041
0.00035866322
0.00037711142
0.00039636728
0.00041644768
0.00043736756
0.00045913957
0.00048177385
0.00050527771
0.00052965533
0.00055490749
0.00058103129
0.00060801982
0.00063586195
0.00066454197
0.00069403934
0.00072432837
0.00075537791
0.00078715102
0.00081960459
0.00085268895
0.00088634744
0.00092051597
0.00095512246
0.00099008635
0.001025318
0.0010607182
0.0010961772
0.0011315746
0.0011667781
0.0012016436
0.0012360138
0.001269718
0.0013025718
0.0013343761
0.0013649171
0.0013939658
0.0014212781
0.0014465947
0.0014696412
0.001490129
0.0015077557
0.0015222066
0.001533156
0.0015402698
0.0015432077
0.0015416274
0.0015351883
0.0015235571
0.0015064143
0.0014834617
0.0014544311
0.0014190952
0.0013772792
0.0013288746
0.0012738544
0.0012122896
0.0011443676
0.0010704112
0.00099089979
0.0009064912
0.00081804843
0.0007266743
0.00063366299
0.00054053658
0.0004490486
0.00036116014
0.00027895196
0.00020445771
0.00014035804
8.7729068e-05
4.7564264e-05
2.0703888e-05
6.784793e-06
1.8608537e-06
4.4991486e-07
1.766124e-07
1.375689e-07
1.3101381e-07
1.2981152e-07
1.2968494e-07
1.2965129e-07
1.29603e-07
1.2956073e-07
1.2954003e-07
1.2953597e-07
1.2953694e-07
1.29535e-07
1.295289e-07
1.2952091e-07
1.2951309e-07
1.2950597e-07
1.2949912e-07
1.294921e-07
1.2948485e-07
1.2947746e-07
1.2947002e-07
1.2946256e-07
1.2945505e-07
1.2944749e-07
1.2943987e-07
1.2942884e-07
1.2942884e-07
1.2943987e-07
1.2944749e-07
1.2945505e-07
1.2946256e-07
1.2947002e-07
1.2947746e-07
1.2948485e-07
1.294921e-07
1.2949912e-07
1.2950597e-07
1.2951309e-07
1.2952091e-07
1.295289e-07
1.29535e-07
1.2953694e-07
1.2953597e-07
1.2954003e-07
1.2956073e-07
1.29603e-07
1.2965129e-07
1.2968494e-07
1.2981152e-07
1.3101382e-07
1.3756888e-07
1.7661212e-07
4.4991293e-07
1.860847e-06
6.784772e-06
2.0703838e-05
4.7564178e-05
8.772894e-05
0.00014035787
0.0002044575
0.00027895171
0.00036115984
0.00044904828
0.00054053622
0.00063366262
0.00072667392
0.00081804805
0.00090649081
0.00099089942
0.0010704109
0.0011443672
0.0012122893
0.0012738541
0.0013288743
0.0013772789
0.0014190949
0.0014544308
0.0014834614
0.0015064141
0.0015235569
0.0015351881
0.0015416272
0.0015432075
0.0015402696
0.0015331558
0.0015222064
0.0015077556
0.0014901289
0.0014696411
0.0014465945
0.001421278
0.0013939657
0.001364917
0.001334376
0.0013025717
0.001269718
0.0012360137
0.0012016435
0.0011667781
0.0011315745
0.0010961771
0.0010607181
0.001025318
0.0009900863
0.0009551224
0.00092051592
0.0008863474
0.00085268891
0.00081960455
0.00078715098
0.00075537788
0.00072432834
0.00069403931
0.00066454195
0.00063586193
0.0006080198
0.00058103127
0.00055490747
0.00052965531
0.00050527769
0.00048177383
0.00045913955
0.00043736754
0.00041644767
0.00039636727
0.00037711141
0.00035866321
0.00034100409
0.00032411403
0.00030797183
0.00029255537
0.0002778418
0.00026380773
0.0002504295
0.00023768323
0.00022554507
0.00021399126
0.0002029983
0.00019254301
0.00018260265
0.00017315495
0.00016417821
0.00015565129
0.00014755372
0.00013986566
0.00013256795
0.00012564212
0.00011907039
0.00011283566
0.00010692154
0.00010131229
9.599286e-05
9.094885e-05
8.6166487e-05
8.1632626e-05
7.7334724e-05
7.3260823e-05
6.9399526e-05
6.5739972e-05
6.227183e-05
5.8985265e-05
5.5870924e-05
5.2919918e-05
5.01238e-05
4.7474536e-05
4.4964496e-05
4.2586443e-05
4.0333502e-05
3.8199142e-05
3.617717e-05
3.4261718e-05
3.2447203e-05
3.0728336e-05
2.9100105e-05
2.7557754e-05
2.6096773e-05
2.4712881e-05
2.3402032e-05
2.2160379e-05
2.0984277e-05
1.9870275e-05
1.8815102e-05
1.7815659e-05
1.6869002e-05
1.5972348e-05
1.5123057e-05
1.4318626e-05
1.3556686e-05
1.2834991e-05
1.215141e-05
1.1503934e-05
1.0890648e-05
1.0309736e-05
9.7594825e-06
9.2382647e-06
8.7445432e-06
8.2768534e-06
7.8338053e-06
7.4140927e-06
7.0164659e-06
6.6397454e-06
6.2828127e-06
5.9446014e-06
5.6241106e-06
5.3203732e-06
5.0324828e-06
4.7595802e-06
4.5008396e-06
4.2554819e-06
4.0227659e-06
3.8019829e-06
3.5924573e-06
3.3935413e-06
3.2046238e-06
3.0251171e-06
2.8544563e-06
2.6921086e-06
2.537555e-06
2.3902951e-06
2.2498566e-06
2.1157872e-06
1.9876454e-06
1.8650124e-06
1.7474983e-06
1.634726e-06
1.5263448e-06
1.4220393e-06
1.321516e-06
1.2245294e-06
1.13088e-06
1.0404224e-06
9.5306788e-07
8.6878529e-07
7.8763421e-07
7.0973826e-07
6.3527448e-07
5.6449265e-07
4.9767475e-07
4.3510571e-07
3.7707528e-07
3.2382457e-07
2.7550854e-07
2.3219817e-07
1.9386208e-07
1.6036397e-07
1.3145866e-07
1.0682695e-07
8.6088621e-08
6.882193e-08
5.4602063e-08
4.3008402e-08
3.3640343e-08
2.6136078e-08
2.0174504e-08
1.5472511e-08
1.1788572e-08
8.9227918e-09
6.7085533e-09
5.0084651e-09
3.7115271e-09
2.7287597e-09
1.9891122e-09
1.4366839e-09
1.027224e-09
7.2629109e-10
5.0720286e-10
3.4920986e-10
2.3661903e-10
1.5743485e-10
1.0254473e-10
6.5161263e-11
4.0204263e-11
2.3934533e-11
1.3646201e-11
7.3659942e-12
3.7036802e-12
1.6945755e-12
6.7849147e-13
2.2203567e-13
5.1844201e-14
6.0623513e-15
6.9507272e-17
6.6457159e-17
5.7956387e-15
4.9598208e-14
2.1240441e-13
6.4855547e-13
1.6197406e-12
3.5408632e-12
7.0414615e-12
1.3047305e-11
2.2888035e-11
3.8438263e-11
6.2301456e-11
9.8048245e-11
1.5052364e-10
2.2624098e-10
3.3388431e-10
4.8494558e-10
6.9452781e-10
9.8235076e-10
1.3740011e-09
1.9024731e-09
2.6100492e-09
3.5505695e-09
4.7921306e-09
6.4202445e-09
8.5414516e-09
1.128734e-08
1.4818839e-08
1.9330548e-08
2.5054698e-08
3.2264162e-08
4.1273715e-08
5.2438596e-08
6.6149379e-08
8.2822313e-08
1.0288474e-07
1.2675587e-07
1.5482405e-07
1.8742263e-07
2.2480731e-07
2.6713815e-07
3.1446943e-07
3.6674941e-07
4.2383064e-07
4.8548976e-07
5.5145386e-07
6.2143004e-07
6.9513404e-07
7.7231514e-07
8.5277498e-07
9.363798e-07
1.0230662e-06
1.1128417e-06
1.2057814e-06
1.302022e-06
1.4017547e-06
1.5052182e-06
1.6126915e-06
1.7244883e-06
1.8409516e-06
1.9624503e-06
2.089376e-06
2.2221412e-06
2.3611782e-06
2.5069385e-06
2.6598932e-06
2.820533e-06
2.9893698e-06
3.1669369e-06
3.3537915e-06
3.5505155e-06
3.7577172e-06
3.9760339e-06
4.2061332e-06
4.4487152e-06
4.7045151e-06
4.9743052e-06
5.2588972e-06
5.5591452e-06
5.8759478e-06
6.2102513e-06
6.5630524e-06
6.9354013e-06
7.3284048e-06
7.7432297e-06
8.1811063e-06
8.6433321e-06
9.1312756e-06
9.6463804e-06
1.0190169e-05
1.076425e-05
1.1370316e-05
1.2010158e-05
1.2685664e-05
1.3398824e-05
1.4151742e-05
1.4946636e-05
1.5785847e-05
1.6671846e-05
1.7607239e-05
1.8594778e-05
1.9637366e-05
2.0738068e-05
2.1900114e-05
2.3126917e-05
2.4422075e-05
2.5789386e-05
2.7232855e-05
2.8756709e-05
3.0365406e-05
3.2063649e-05
3.3856396e-05
3.574888e-05
3.7746617e-05
3.9855423e-05
4.2081432e-05
4.4431108e-05
4.6911268e-05
4.9529092e-05
5.2292151e-05
5.5208418e-05
5.8286294e-05
6.1534625e-05
6.4962728e-05
6.858041e-05
7.2397991e-05
7.6426331e-05
8.0676851e-05
8.5161561e-05
8.9893084e-05
9.4884682e-05
0.00010015028
0.00010570451
0.00011156269
0.0001177409
0.00012425601
0.00013112564
0.00013836825
0.00014600314
0.00015405046
0.00016253122
0.00017146733
0.00018088159
0.0001907977
0.00020124023
0.00021223466
0.00022380735
0.00023598546
0.00024879698
0.00026227067
0.00027643595
0.00029132288
0.00030696205
0.00032338445
0.00034062135
0.00035870418
0.0003776643
0.00039753287
0.00041834058
0.00044011744
0.0004628925
0.00048669358
0.00051154695
0.000537477
0.0005645059
0.00059265326
0.00062193572
0.00065236661
0.00068395551
0.00071670793
0.00075062486
0.00078570238
0.00082193131
0.00085929675
0.00089777773
0.00093734676
0.00097796942
0.0010196039
0.0010622006
0.0011057014
0.0011500394
0.0011951382
0.001240911
0.0012872606
0.0013340778
0.0013812411
0.0014286158
0.0014760533
0.0015233896
0.0015704449
0.0016170228
0.0016629089
0.0017078701
0.0017516539
0.0017939878
0.001834578
0.0018731098
0.0019092464
0.0019426294
0.0019728786
0.0019995926
0.0020223499
0.0020407098
0.002054215
0.0020623942
0.0020647653
0.002060841
0.0020501341
0.0020321652
0.0020064723
0.0019726215
0.0019302206
0.0018789351
0.0018185073
0.0017487775
0.0016697094
0.0015814179
0.0014842002
0.0013785692
0.0012652895
0.0011454141
0.0010203186
0.00089173371
0.00076178199
0.00063294329
0.00050807435
0.0003904097
0.00028343363
0.00019035357
0.00011534226
5.9215806e-05
2.3176345e-05
6.3173964e-06
1.4068465e-06
2.9178674e-07
1.489774e-07
1.3214566e-07
1.2993734e-07
1.2969e-07
1.2963379e-07
1.2959088e-07
1.2956455e-07
1.2955469e-07
1.2955109e-07
1.2954563e-07
1.2953668e-07
1.2952619e-07
1.2951592e-07
1.2950619e-07
1.2949656e-07
1.2948674e-07
1.2947674e-07
1.2946666e-07
1.2945657e-07
1.2944641e-07
1.2943127e-07
1.2943128e-07
1.2944642e-07
1.2945658e-07
1.2946667e-07
1.2947674e-07
1.2948675e-07
1.2949657e-07
1.295062e-07
1.2951593e-07
1.295262e-07
1.2953669e-07
1.2954565e-07
1.295511e-07
1.2955471e-07
1.2956457e-07
1.295909e-07
1.2963381e-07
1.2969002e-07
1.2993734e-07
1.3214562e-07
1.4897705e-07
2.9178372e-07
1.4068299e-06
6.3173335e-06
2.3176174e-05
5.9215495e-05
0.00011534181
0.00019035298
0.00028343292
0.00039040888
0.00050807345
0.00063294235
0.00076178102
0.00089173273
0.0010203176
0.0011454131
0.0012652886
0.0013785682
0.0014841993
0.001581417
0.0016697086
0.0017487768
0.0018185066
0.0018789344
0.0019302199
0.0019726209
0.0020064718
0.0020321647
0.0020501335
0.0020608405
0.0020647648
0.0020623937
0.0020542146
0.0020407094
0.0020223495
0.0019995923
0.0019728782
0.0019426291
0.0019092461
0.0018731095
0.0018345778
0.0017939875
0.0017516537
0.0017078699
0.0016629087
0.0016170227
0.0015704448
0.0015233894
0.0014760531
0.0014286157
0.0013812409
0.0013340776
0.0012872605
0.0012409109
0.0011951381
0.0011500393
0.0011057013
0.0010622005
0.0010196038
0.00097796935
0.00093734669
0.00089777767
0.00085929669
0.00082193125
0.00078570233
0.00075062481
0.00071670789
0.00068395547
0.00065236657
0.00062193569
0.00059265323
0.00056450587
0.00053747697
0.00051154693
0.00048669356
0.00046289248
0.00044011742
0.00041834056
0.00039753286
0.00037766429
0.00035870416
0.00034062134
0.00032338444
0.00030696204
0.00029132288
0.00027643594
0.00026227066
0.00024879697
0.00023598545
0.00022380734
0.00021223466
0.00020124022
0.00019079769
0.00018088159
0.00017146733
0.00016253122
0.00015405046
0.00014600314
0.00013836825
0.00013112563
0.00012425601
0.0001177409
0.00011156269
0.00010570451
0.00010015028
9.488468e-05
8.9893083e-05
8.5161562e-05
8.067685e-05
7.6426328e-05
7.2397988e-05
6.8580409e-05
6.4962727e-05
6.1534625e-05
5.8286293e-05
5.5208415e-05
5.2292147e-05
4.9529092e-05
4.691127e-05
4.4431109e-05
4.2081432e-05
3.9855425e-05
3.7746618e-05
3.5748877e-05
3.3856396e-05
3.2063649e-05
3.0365406e-05
2.8756709e-05
2.7232855e-05
2.5789388e-05
2.4422075e-05
2.3126918e-05
2.1900118e-05
2.073807e-05
1.9637367e-05
1.8594778e-05
1.760724e-05
1.6671847e-05
1.578585e-05
1.4946639e-05
1.4151744e-05
1.3398826e-05
1.2685664e-05
1.2010155e-05
1.1370315e-05
1.0764251e-05
1.019017e-05
9.6463785e-06
9.1312721e-06
8.6433307e-06
8.1811074e-06
7.7432292e-06
7.3284054e-06
6.9354013e-06
6.5630516e-06
6.210251e-06
5.8759458e-06
5.5591467e-06
5.2588979e-06
4.9743034e-06
4.7045138e-06
4.4487127e-06
4.2061295e-06
3.9760312e-06
3.7577169e-06
3.550518e-06
3.3537933e-06
3.1669383e-06
2.9893708e-06
2.8205317e-06
2.6598931e-06
2.506941e-06
2.3611797e-06
2.2221414e-06
2.089378e-06
1.9624526e-06
1.8409509e-06
1.7244877e-06
1.6126914e-06
1.5052169e-06
1.4017558e-06
1.302022e-06
1.2057792e-06
1.1128379e-06
1.0230643e-06
9.3638251e-07
8.5277469e-07
7.7231402e-07
6.9513697e-07
6.2143163e-07
5.5145551e-07
4.8549401e-07
4.2383037e-07
3.6674669e-07
3.144711e-07
2.6714154e-07
2.2480918e-07
1.8742209e-07
1.5482477e-07
1.2675615e-07
1.0288518e-07
8.2824584e-08
6.6150347e-08
5.2439131e-08
4.1275061e-08
3.2264565e-08
2.5053911e-08
1.9330452e-08
1.4819514e-08
1.1287411e-08
8.5411498e-09
6.4201663e-09
4.7922611e-09
3.5507578e-09
2.6102276e-09
1.9025113e-09
1.3740189e-09
9.8235247e-10
6.9452772e-10
4.8500054e-10
3.3391257e-10
2.2624813e-10
1.505317e-10
9.8047015e-11
6.2302598e-11
3.8440211e-11
2.2884249e-11
1.304735e-11
7.0427351e-12
3.5411417e-12
1.6202084e-12
6.4871605e-13
2.1229187e-13
4.9569116e-14
5.7963207e-15
6.6457171e-17
6.4522637e-17
5.6269292e-15
4.8154394e-14
2.0622115e-13
6.2967516e-13
1.572587e-12
3.4377815e-12
6.8364714e-12
1.2667483e-11
2.2221775e-11
3.7319448e-11
6.0488323e-11
9.519539e-11
1.4614524e-10
2.1966276e-10
3.2418144e-10
4.7086264e-10
6.7437672e-10
9.5388143e-10
1.3342389e-09
1.8475169e-09
2.534822e-09
3.4485159e-09
4.654854e-09
6.23708e-09
8.2989746e-09
1.0968817e-08
1.4403642e-08
1.8793556e-08
2.4365759e-08
3.1387683e-08
4.0168493e-08
5.1058029e-08
6.4442175e-08
8.0733809e-08
1.0035887e-07
1.2373774e-07
1.5126292e-07
1.8327502e-07
2.2003987e-07
2.6172981e-07
3.0841252e-07
3.6004944e-07
4.1650477e-07
4.7756408e-07
5.4296e-07
6.124014e-07
6.8560231e-07
7.6230728e-07
8.4231104e-07
9.2547154e-07
1.0117165e-06
1.1010445e-06
1.1935223e-06
1.2892788e-06
1.3884984e-06
1.4914139e-06
1.598299e-06
1.709463e-06
1.825245e-06