/*--------------------------------*- C++ -*----------------------------------*\
| =========                 |                                                 |
| \\      /  F ield         | OpenFOAM: The Open Source CFD Toolbox           |
|  \\    /   O peration     | Version:  2112                                  |
|   \\  /    A nd           | Website:  www.openfoam.com                      |
|    \\/     M anipulation  |                                                 |
\*---------------------------------------------------------------------------*/
FoamFile
{
    version     2.0;
    format      ascii;
    arch        "LSB;label=32;scalar=64";
    class       volScalarField;
    location    "4416";
    object      nuTilda;
}
// * * * * * * * * * * * * * * * * * * * * * * * * * * * * * * * * * * * * * //

dimensions      [0 2 -1 0 0 0 0];

internalField   nonuniform List<scalar> 
81920
(
2.5146553e-09
7.6845317e-09
1.31434e-08
1.8907389e-08
2.4993526e-08
3.1419789e-08
3.8205155e-08
4.5369659e-08
5.2934445e-08
6.0921835e-08
6.9355386e-08
7.8259962e-08
8.7661802e-08
9.7588598e-08
1.0806957e-07
1.1913558e-07
1.3081916e-07
1.4315472e-07
1.5617857e-07
1.6992911e-07
1.8444696e-07
1.9977517e-07
2.1595939e-07
2.3304813e-07
2.5109297e-07
2.7014881e-07
2.9027405e-07
3.1153063e-07
3.33984e-07
3.577029e-07
3.8275904e-07
4.0922686e-07
4.3718336e-07
4.6670835e-07
4.9788491e-07
5.3080023e-07
5.6554637e-07
6.0222116e-07
6.4092883e-07
6.8178054e-07
7.2489469e-07
7.7039725e-07
8.1842193e-07
8.691104e-07
9.2261253e-07
9.7908665e-07
1.0386999e-06
1.1016285e-06
1.1680584e-06
1.2381854e-06
1.3122161e-06
1.3903681e-06
1.4728708e-06
1.559966e-06
1.6519086e-06
1.7489674e-06
1.8514258e-06
1.9595825e-06
2.0737526e-06
2.1942681e-06
2.3214793e-06
2.4557556e-06
2.5974862e-06
2.7470817e-06
2.9049748e-06
3.0716216e-06
3.2475032e-06
3.4331262e-06
3.6290249e-06
3.835762e-06
4.0539306e-06
4.2841556e-06
4.527095e-06
4.7834421e-06
5.0539269e-06
5.339318e-06
5.6404247e-06
5.9580988e-06
6.2932365e-06
6.6467812e-06
7.019725e-06
7.4131114e-06
7.8280376e-06
8.2656571e-06
8.727182e-06
9.213886e-06
9.7271066e-06
1.0268248e-05
1.0838786e-05
1.1440265e-05
1.2074308e-05
1.2742617e-05
1.3446972e-05
1.4189241e-05
1.4971377e-05
1.5795425e-05
1.6663521e-05
1.75779e-05
1.8540894e-05
1.9554937e-05
2.0622565e-05
2.1746422e-05
2.292926e-05
2.4173939e-05
2.548343e-05
2.6860816e-05
2.8309293e-05
2.9832166e-05
3.1432853e-05
3.311488e-05
3.4881879e-05
3.6737588e-05
3.8685843e-05
4.0730573e-05
4.2875796e-05
4.5125609e-05
4.7484181e-05
4.9955742e-05
5.2544569e-05
5.5254976e-05
5.8091299e-05
6.1057875e-05
6.415903e-05
6.7399056e-05
7.078219e-05
7.431259e-05
7.7994313e-05
8.183129e-05
8.5827292e-05
8.9985911e-05
9.4310521e-05
9.8804253e-05
0.00010346996
0.00010831019
0.00011332713
0.00011852261
0.00012389802
0.00012945432
0.00013519196
0.00014111086
0.00014721037
0.00015348922
0.00015994548
0.00016657651
0.00017337892
0.00018034848
0.00018748012
0.00019476784
0.00020220466
0.00020978255
0.00021749235
0.00022532376
0.00023326518
0.00024130371
0.00024942506
0.00025761343
0.00026585149
0.00027412029
0.00028239914
0.00029066561
0.00029889539
0.00030706228
0.00031513809
0.00032309258
0.00033089347
0.00033850634
0.00034589465
0.0003530197
0.00035984066
0.00036631457
0.00037239645
0.00037803929
0.00038319423
0.00038781066
0.0003918364
0.00039521794
0.0003979007
0.00039982935
0.00040094821
0.0004012017
0.00040053486
0.00039889398
0.00039622729
0.0003924858
0.00038762416
0.00038160173
0.00037438372
0.00036594247
0.00035625885
0.00034532383
0.00033314016
0.00031972417
0.0003051077
0.00028934011
0.00027249035
0.00025464902
0.00023593035
0.00021647393
0.00019644603
0.00017604021
0.00015547665
0.00013499996
0.00011487813
9.545173e-05
7.8114932e-05
6.2335853e-05
4.8202433e-05
3.5840578e-05
2.5384509e-05
1.6948266e-05
1.0576325e-05
6.1708052e-06
3.4337052e-06
1.9101564e-06
1.1387945e-06
7.7549624e-07
6.1421711e-07
5.4684332e-07
5.197075e-07
5.0895976e-07
5.0450356e-07
5.0234787e-07
5.010957e-07
5.0037092e-07
5.0032751e-07
5.0037717e-07
5.0036247e-07
5.0027676e-07
5.0016735e-07
5.0008093e-07
5.000352e-07
5.0002519e-07
5.0003584e-07
5.0005081e-07
5.000599e-07
5.0006112e-07
5.0005731e-07
5.0005226e-07
5.0004828e-07
5.0004568e-07
5.0004371e-07
5.0004164e-07
5.000392e-07
5.0003651e-07
5.0003375e-07
5.0003099e-07
5.0002822e-07
5.000254e-07
5.0002253e-07
5.0001961e-07
5.0001665e-07
5.0001366e-07
5.0001065e-07
5.000076e-07
5.0000452e-07
5.0000098e-07
5.0000098e-07
5.0000452e-07
5.000076e-07
5.0001065e-07
5.0001366e-07
5.0001665e-07
5.0001961e-07
5.0002253e-07
5.000254e-07
5.0002822e-07
5.0003099e-07
5.0003375e-07
5.0003651e-07
5.000392e-07
5.0004164e-07
5.0004371e-07
5.0004568e-07
5.0004828e-07
5.0005226e-07
5.0005731e-07
5.0006112e-07
5.000599e-07
5.0005081e-07
5.0003583e-07
5.0002519e-07
5.000352e-07
5.0008093e-07
5.0016736e-07
5.0027677e-07
5.0036248e-07
5.0037717e-07
5.0032751e-07
5.0037092e-07
5.0109571e-07
5.0234787e-07
5.0450357e-07
5.0895976e-07
5.197075e-07
5.4684332e-07
6.142171e-07
7.7549623e-07
1.1387944e-06
1.9101563e-06
3.4337051e-06
6.1708049e-06
1.0576325e-05
1.6948265e-05
2.5384508e-05
3.5840577e-05
4.8202431e-05
6.2335852e-05
7.8114931e-05
9.5451729e-05
0.00011487812
0.00013499996
0.00015547664
0.00017604021
0.00019644603
0.00021647393
0.00023593035
0.00025464902
0.00027249035
0.00028934011
0.0003051077
0.00031972417
0.00033314016
0.00034532383
0.00035625885
0.00036594247
0.00037438372
0.00038160173
0.00038762415
0.00039248579
0.00039622729
0.00039889397
0.00040053486
0.0004012017
0.00040094821
0.00039982935
0.0003979007
0.00039521794
0.0003918364
0.00038781066
0.00038319423
0.00037803929
0.00037239645
0.00036631457
0.00035984065
0.0003530197
0.00034589465
0.00033850634
0.00033089347
0.00032309258
0.00031513808
0.00030706228
0.00029889539
0.00029066561
0.00028239914
0.00027412028
0.00026585149
0.00025761342
0.00024942505
0.00024130371
0.00023326518
0.00022532376
0.00021749235
0.00020978255
0.00020220466
0.00019476784
0.00018748012
0.00018034848
0.00017337892
0.00016657651
0.00015994548
0.00015348922
0.00014721037
0.00014111086
0.00013519196
0.00012945432
0.00012389802
0.00011852261
0.00011332713
0.00010831019
0.00010346996
9.8804252e-05
9.4310519e-05
8.9985911e-05
8.5827294e-05
8.183129e-05
7.7994311e-05
7.4312588e-05
7.0782189e-05
6.7399056e-05
6.4159031e-05
6.1057875e-05
5.8091297e-05
5.5254973e-05
5.2544568e-05
4.9955744e-05
4.7484182e-05
4.5125609e-05
4.2875797e-05
4.0730574e-05
3.868584e-05
3.6737588e-05
3.488188e-05
3.311488e-05
3.1432853e-05
2.9832166e-05
2.8309295e-05
2.6860816e-05
2.5483431e-05
2.4173942e-05
2.2929262e-05
2.1746422e-05
2.0622564e-05
1.9554938e-05
1.8540896e-05
1.7577903e-05
1.6663525e-05
1.5795427e-05
1.4971379e-05
1.4189241e-05
1.3446969e-05
1.2742615e-05
1.207431e-05
1.1440266e-05
1.0838783e-05
1.0268245e-05
9.727105e-06
9.2138871e-06
8.7271814e-06
8.2656576e-06
7.8280375e-06
7.4131104e-06
7.0197246e-06
6.646779e-06
6.2932382e-06
5.9580994e-06
5.6404227e-06
5.3393165e-06
5.0539239e-06
4.7834379e-06
4.5270919e-06
4.2841551e-06
4.0539333e-06
3.8357638e-06
3.6290262e-06
3.4331273e-06
3.2475016e-06
3.0716214e-06
2.9049774e-06
2.7470832e-06
2.5974863e-06
2.4557576e-06
2.3214817e-06
2.1942673e-06
2.0737519e-06
1.9595824e-06
1.8514245e-06
1.7489685e-06
1.6519086e-06
1.5599638e-06
1.4728671e-06
1.3903663e-06
1.3122185e-06
1.2381851e-06
1.1680574e-06
1.101631e-06
1.0387012e-06
9.7908802e-07
9.2261616e-07
8.6911013e-07
8.1841945e-07
7.7039879e-07
7.2489802e-07
6.8178248e-07
6.409282e-07
6.0222204e-07
5.6554673e-07
5.3080088e-07
4.9788887e-07
4.6671027e-07
4.3718458e-07
4.0923049e-07
3.8276032e-07
3.576999e-07
3.3398355e-07
3.1153432e-07
2.9027451e-07
2.7014635e-07
2.5109218e-07
2.3304974e-07
2.1596229e-07
1.9977862e-07
1.8444789e-07
1.6992966e-07
1.5617863e-07
1.4315471e-07
1.3082288e-07
1.191381e-07
1.0807042e-07
9.7589901e-08
8.7661523e-08
7.8260318e-08
6.9356262e-08
6.0919312e-08
5.2934488e-08
4.5371708e-08
3.8205905e-08
3.1422056e-08
2.4995072e-08
1.8904883e-08
1.3141472e-08
7.6847575e-09
2.5146554e-09
2.2769032e-09
6.9580052e-09
1.190081e-08
1.7119938e-08
2.2630822e-08
2.8449758e-08
3.4593951e-08
4.1081562e-08
4.7931768e-08
5.5164807e-08
6.2802047e-08
7.0866041e-08
7.9380595e-08
8.8370835e-08
9.7863283e-08
1.0788593e-07
1.1846833e-07
1.2964167e-07
1.414389e-07
1.5389481e-07
1.670462e-07
1.8093196e-07
1.955933e-07
2.110739e-07
2.2742014e-07
2.446813e-07
2.6290984e-07
2.8216154e-07
3.024957e-07
3.2397512e-07
3.46666e-07
3.7063776e-07
3.9596273e-07
4.2271602e-07
4.5097548e-07
4.8082207e-07
5.123404e-07
5.4561951e-07
5.8075367e-07
6.1784308e-07
6.5699451e-07
6.983217e-07
7.4194575e-07
7.8799535e-07
8.3660705e-07
8.8792552e-07
9.4210379e-07
9.9930361e-07
1.0596958e-06
1.1234606e-06
1.1907884e-06
1.2618798e-06
1.3369467e-06
1.4162126e-06
1.4999131e-06
1.5882972e-06
1.6816274e-06
1.780181e-06
1.8842506e-06
1.9941451e-06
2.1101906e-06
2.2327316e-06
2.3621318e-06
2.498775e-06
2.6430669e-06
2.7954357e-06
2.9563336e-06
3.1262383e-06
3.3056542e-06
3.495114e-06
3.6951802e-06
3.9064471e-06
4.1295421e-06
4.365128e-06
4.6139048e-06
4.8766116e-06
5.1540291e-06
5.4469818e-06
5.7563406e-06
6.083025e-06
6.4280064e-06
6.7923105e-06
7.1770206e-06
7.5832807e-06
8.0122991e-06
8.4653517e-06
8.943786e-06
9.4490251e-06
9.9825715e-06
1.0546012e-05
1.1141022e-05
1.1769372e-05
1.2432929e-05
1.3133666e-05
1.3873665e-05
1.4655125e-05
1.5480368e-05
1.6351843e-05
1.7272136e-05
1.8243978e-05
1.9270248e-05
2.0353988e-05
2.1498403e-05
2.2706878e-05
2.3982981e-05
2.5330478e-05
2.6753337e-05
2.8255743e-05
2.9842106e-05
3.1517075e-05
3.3285545e-05
3.5152674e-05
3.7123891e-05
3.9204909e-05
4.1401741e-05
4.3720707e-05
4.6168451e-05
4.8751953e-05
5.1478538e-05
5.4355896e-05
5.7392084e-05
6.0595546e-05
6.3975117e-05
6.7540038e-05
7.1299959e-05
7.5264949e-05
7.9445497e-05
8.3852518e-05
8.849735e-05
9.3391749e-05
9.8547885e-05
0.00010397832
0.00010969601
0.00011571426
0.00012204671
0.00012870728
0.00013571017
0.00014306974
0.00015080052
0.0001589171
0.00016743405
0.00017636584
0.00018572676
0.00019553078
0.00020579145
0.00021652177
0.00022773406
0.00023943981
0.00025164955
0.0002643727
0.00027761738
0.00029139032
0.00030569666
0.00032053981
0.0003359213
0.00035184065
0.0003682952
0.00038527996
0.0004027875
0.00042080775
0.00043932788
0.00045833213
0.0004778016
0.00049771412
0.00051804399
0.0005387618
0.00055983415
0.00058122343
0.0006028875
0.00062477944
0.00064684722
0.00066903337
0.00069127469
0.0007135019
0.0007356393
0.00075760452
0.00077930813
0.00080065344
0.00082153621
0.00084184444
0.00086145824
0.00088024968
0.00089808283
0.00091481372
0.00093029059
0.00094435412
0.00095683789
0.00096756893
0.00097636857
0.00098305344
0.00098743677
0.00098933001
0.00098854479
0.00098489529
0.00097820108
0.00096829048
0.00095500447
0.0009382013
0.00091776176
0.00089359522
0.00086564655
0.0008339039
0.00079840757
0.00075926
0.00071663643
0.0006707772
0.0006220028
0.00057072161
0.00051743605
0.00046274568
0.0004073459
0.00035201983
0.00029762215
0.00024505522
0.00019523641
0.00014907121
0.00010909071
7.4938457e-05
4.7127172e-05
2.6159406e-05
1.2283899e-05
4.8695605e-06
1.8511355e-06
8.7375954e-07
5.9800282e-07
5.2556876e-07
5.0718074e-07
5.0227735e-07
5.0067574e-07
5.0036749e-07
5.0033465e-07
5.0028299e-07
5.0020218e-07
5.0013279e-07
5.0009753e-07
5.0009127e-07
5.0009836e-07
5.0010493e-07
5.0010492e-07
5.0009955e-07
5.0009237e-07
5.0008586e-07
5.0008045e-07
5.0007549e-07
5.0007035e-07
5.0006486e-07
5.0005917e-07
5.0005342e-07
5.0004763e-07
5.000418e-07
5.000359e-07
5.0002993e-07
5.0002392e-07
5.0001788e-07
5.0001177e-07
5.0000354e-07
5.0000354e-07
5.0001177e-07
5.0001788e-07
5.0002392e-07
5.0002993e-07
5.000359e-07
5.000418e-07
5.0004763e-07
5.0005342e-07
5.0005917e-07
5.0006486e-07
5.0007035e-07
5.0007549e-07
5.0008045e-07
5.0008586e-07
5.0009237e-07
5.0009955e-07
5.0010492e-07
5.0010492e-07
5.0009836e-07
5.0009126e-07
5.0009753e-07
5.0013279e-07
5.0020219e-07
5.0028299e-07
5.0033466e-07
5.003675e-07
5.0067577e-07
5.0227738e-07
5.0718077e-07
5.2556875e-07
5.9800269e-07
8.7375905e-07
1.8511339e-06
4.8695562e-06
1.228389e-05
2.6159389e-05
4.7127148e-05
7.4938425e-05
0.00010909067
0.00014907117
0.00019523636
0.00024505516
0.00029762209
0.00035201976
0.00040734582
0.0004627456
0.00051743597
0.00057072153
0.00062200272
0.00067077712
0.00071663635
0.00075925993
0.0007984075
0.00083390383
0.00086564647
0.00089359515
0.00091776169
0.00093820124
0.00095500441
0.00096829042
0.00097820102
0.00098489524
0.00098854474
0.00098932996
0.00098743672
0.00098305339
0.00097636853
0.00096756889
0.00095683785
0.00094435409
0.00093029056
0.00091481369
0.0008980828
0.00088024966
0.00086145821
0.00084184442
0.00082153618
0.00080065342
0.00077930811
0.0007576045
0.00073563928
0.00071350188
0.00069127467
0.00066903335
0.00064684721
0.00062477943
0.00060288749
0.00058122342
0.00055983414
0.00053876179
0.00051804398
0.00049771411
0.00047780159
0.00045833212
0.00043932788
0.00042080774
0.00040278749
0.00038527996
0.00036829519
0.00035184065
0.0003359213
0.0003205398
0.00030569666
0.00029139032
0.00027761738
0.0002643727
0.00025164955
0.00023943981
0.00022773406
0.00021652177
0.00020579145
0.00019553078
0.00018572676
0.00017636584
0.00016743404
0.0001589171
0.00015080052
0.00014306974
0.00013571017
0.00012870728
0.00012204671
0.00011571426
0.00010969601
0.00010397832
9.8547883e-05
9.3391749e-05
8.8497351e-05
8.3852518e-05
7.9445494e-05
7.5264946e-05
7.1299959e-05
6.7540037e-05
6.3975117e-05
6.0595545e-05
5.7392081e-05
5.4355892e-05
5.1478538e-05
4.8751955e-05
4.6168452e-05
4.3720707e-05
4.1401743e-05
3.920491e-05
3.7123888e-05
3.5152674e-05
3.3285545e-05
3.1517074e-05
2.9842105e-05
2.8255743e-05
2.6753339e-05
2.5330478e-05
2.3982983e-05
2.2706881e-05
2.1498405e-05
2.0353988e-05
1.9270248e-05
1.8243979e-05
1.7272138e-05
1.6351845e-05
1.5480371e-05
1.4655127e-05
1.3873666e-05
1.3133666e-05
1.2432926e-05
1.176937e-05
1.1141024e-05
1.0546013e-05
9.9825694e-06
9.4490213e-06
8.9437844e-06
8.4653527e-06
8.0122985e-06
7.5832812e-06
7.1770205e-06
6.7923096e-06
6.4280061e-06
6.083023e-06
5.7563421e-06
5.4469825e-06
5.1540272e-06
4.8766102e-06
4.6139021e-06
4.3651242e-06
4.1295393e-06
3.9064467e-06
3.6951826e-06
3.4951157e-06
3.3056555e-06
3.1262393e-06
2.9563322e-06
2.7954355e-06
2.6430693e-06
2.4987765e-06
2.3621319e-06
2.2327335e-06
2.1101928e-06
1.9941444e-06
1.8842501e-06
1.7801809e-06
1.6816262e-06
1.5882981e-06
1.4999131e-06
1.4162106e-06
1.3369434e-06
1.2618783e-06
1.1907906e-06
1.1234604e-06
1.0596949e-06
9.9930586e-07
9.4210499e-07
8.8792677e-07
8.3661035e-07
7.879951e-07
7.419435e-07
6.983231e-07
6.5699753e-07
6.1784484e-07
5.8075309e-07
5.4562031e-07
5.1234073e-07
4.8082267e-07
4.5097907e-07
4.2271777e-07
3.9596384e-07
3.7064105e-07
3.4666715e-07
3.239724e-07
3.024953e-07
2.8216488e-07
2.6291026e-07
2.4467907e-07
2.2741942e-07
2.1107536e-07
1.9559593e-07
1.8093508e-07
1.6704704e-07
1.5389531e-07
1.4143895e-07
1.2964166e-07
1.1847169e-07
1.0788822e-07
9.7864054e-08
8.8372016e-08
7.9380343e-08
7.0866363e-08
6.2802841e-08
5.5162523e-08
4.7931807e-08
4.1083419e-08
3.459463e-08
2.8451811e-08
2.2632222e-08
1.7117669e-08
1.1899065e-08
6.9582096e-09
2.2769033e-09
2.2333219e-09
6.8248226e-09
1.1673014e-08
1.6792232e-08
2.2197615e-08
2.7905142e-08
3.3931687e-08
4.0295062e-08
4.7014071e-08
5.4108565e-08
6.1599499e-08
6.9508991e-08
7.7860388e-08
8.6678333e-08
9.5988834e-08
1.0581934e-07
1.1619884e-07
1.2715791e-07
1.3872886e-07
1.5094579e-07
1.6384476e-07
1.7746389e-07
1.9184354e-07
2.0702646e-07
2.2305803e-07
2.3998644e-07
2.5786298e-07
2.7674216e-07
2.9668196e-07
3.1774381e-07
3.399926e-07
3.6349645e-07
3.8832648e-07
4.1455658e-07
4.4226339e-07
4.7152649e-07
5.0242893e-07
5.350579e-07
5.6950558e-07
6.0586981e-07
6.442548e-07
6.8477156e-07
7.275383e-07
7.7268072e-07
8.2033225e-07
8.706343e-07
9.2373651e-07
9.7979707e-07
1.038983e-06
1.1014708e-06
1.1674464e-06
1.2371062e-06
1.3106573e-06
1.3883182e-06
1.4703193e-06
1.5569038e-06
1.6483284e-06
1.7448637e-06
1.8467957e-06
1.9544259e-06
2.0680728e-06
2.1880725e-06
2.3147798e-06
2.4485695e-06
2.589837e-06
2.739e-06
2.8964992e-06
3.0628004e-06
3.238395e-06
3.4238018e-06
3.619569e-06
3.8262749e-06
4.0445305e-06
4.2749806e-06
4.5183061e-06
4.7752261e-06
5.0464994e-06
5.3329276e-06
5.6353568e-06
5.9546802e-06
6.2918411e-06
6.6478351e-06
7.0237136e-06
7.4205863e-06
7.8396251e-06
8.2820669e-06
8.7492178e-06
9.2424563e-06
9.7632379e-06
1.0313099e-05
1.0893662e-05
1.1506638e-05
1.2153836e-05
1.2837162e-05
1.3558631e-05
1.4320369e-05
1.5124619e-05
1.5973748e-05
1.6870258e-05
1.7816785e-05
1.8816113e-05
1.9871181e-05
2.0985087e-05
2.2161105e-05
2.3402684e-05
2.4713468e-05
2.6097297e-05
2.7558226e-05
2.9100529e-05
3.0728716e-05
3.2447542e-05
3.4262023e-05
3.6177446e-05
3.8199387e-05
4.033372e-05
4.2586641e-05
4.4964673e-05
4.7474693e-05
5.0123943e-05
5.292005e-05
5.5871041e-05
5.8985368e-05
6.2271922e-05
6.5740056e-05
6.9399601e-05
7.3260893e-05
7.7334787e-05
8.163268e-05
8.6166535e-05
9.0948893e-05
9.5992902e-05
0.00010131233
0.00010692157
0.00011283569
0.00011907042
0.00012564215
0.00013256798
0.00013986568
0.00014755374
0.00015565131
0.00016417822
0.00017315497
0.00018260266
0.00019254302
0.00020299831
0.00021399127
0.00022554508
0.00023768324
0.00025042951
0.00026380775
0.0002778418
0.00029255538
0.00030797184
0.00032411404
0.0003410041
0.00035866323
0.00037711142
0.00039636728
0.00041644769
0.00043736756
0.00045913957
0.00048177385
0.00050527771
0.00052965533
0.00055490749
0.00058103129
0.00060801983
0.00063586195
0.00066454197
0.00069403934
0.00072432837
0.00075537791
0.00078715102
0.00081960459
0.00085268895
0.00088634744
0.00092051597
0.00095512246
0.00099008635
0.001025318
0.0010607182
0.0010961772
0.0011315746
0.0011667781
0.0012016436
0.0012360138
0.0012697181
0.0013025718
0.0013343761
0.0013649171
0.0013939658
0.0014212781
0.0014465947
0.0014696412
0.001490129
0.0015077557
0.0015222066
0.001533156
0.0015402698
0.0015432077
0.0015416274
0.0015351883
0.0015235571
0.0015064143
0.0014834617
0.0014544311
0.0014190952
0.0013772792
0.0013288746
0.0012738544
0.0012122896
0.0011443676
0.0010704112
0.00099089979
0.0009064912
0.00081804843
0.0007266743
0.00063366299
0.00054053658
0.00044904861
0.00036116014
0.00027895197
0.00020445771
0.00014035806
8.7729114e-05
4.7564423e-05
2.0704722e-05
6.7925414e-06
1.9505939e-06
7.8403377e-07
5.5214192e-07
5.0960747e-07
5.0189996e-07
5.0046476e-07
5.0031325e-07
5.0027295e-07
5.0021513e-07
5.001645e-07
5.0013971e-07
5.0013485e-07
5.0013601e-07
5.0013368e-07
5.0012638e-07
5.001168e-07
5.0010743e-07
5.000989e-07
5.0009069e-07
5.0008229e-07
5.0007359e-07
5.0006474e-07
5.0005583e-07
5.0004688e-07
5.0003789e-07
5.0002883e-07
5.000197e-07
5.0000648e-07
5.0000647e-07
5.0001969e-07
5.0002883e-07
5.0003788e-07
5.0004688e-07
5.0005583e-07
5.0006474e-07
5.0007359e-07
5.0008229e-07
5.0009069e-07
5.000989e-07
5.0010743e-07
5.001168e-07
5.0012638e-07
5.0013368e-07
5.0013601e-07
5.0013485e-07
5.0013971e-07
5.001645e-07
5.0021513e-07
5.0027296e-07
5.0031325e-07
5.0046476e-07
5.0189997e-07
5.0960744e-07
5.5214163e-07
7.840323e-07
1.9505877e-06
6.7925205e-06
2.0704673e-05
4.7564336e-05
8.7728987e-05
0.00014035789
0.00020445751
0.00027895171
0.00036115985
0.00044904828
0.00054053622
0.00063366262
0.00072667392
0.00081804805
0.00090649082
0.00099089942
0.0010704109
0.0011443672
0.0012122893
0.0012738541
0.0013288743
0.0013772789
0.0014190949
0.0014544308
0.0014834614
0.0015064141
0.0015235569
0.0015351881
0.0015416272
0.0015432075
0.0015402696
0.0015331558
0.0015222064
0.0015077556
0.0014901289
0.0014696411
0.0014465945
0.001421278
0.0013939657
0.001364917
0.001334376
0.0013025717
0.001269718
0.0012360137
0.0012016435
0.0011667781
0.0011315745
0.0010961771
0.0010607181
0.001025318
0.0009900863
0.0009551224
0.00092051592
0.0008863474
0.00085268891
0.00081960455
0.00078715098
0.00075537788
0.00072432834
0.00069403931
0.00066454195
0.00063586193
0.0006080198
0.00058103127
0.00055490747
0.00052965531
0.00050527769
0.00048177384
0.00045913956
0.00043736754
0.00041644767
0.00039636727
0.00037711141
0.00035866322
0.00034100409
0.00032411403
0.00030797183
0.00029255537
0.0002778418
0.00026380774
0.0002504295
0.00023768324
0.00022554507
0.00021399126
0.0002029983
0.00019254302
0.00018260266
0.00017315496
0.00016417822
0.00015565131
0.00014755374
0.00013986568
0.00013256797
0.00012564215
0.00011907042
0.00011283569
0.00010692157
0.00010131232
9.5992899e-05
9.0948893e-05
8.6166536e-05
8.163268e-05
7.7334784e-05
7.326089e-05
6.93996e-05
6.5740055e-05
6.2271922e-05
5.8985368e-05
5.5871038e-05
5.2920046e-05
5.0123943e-05
4.7474695e-05
4.4964673e-05
4.258664e-05
4.0333722e-05
3.8199388e-05
3.6177443e-05
3.4262023e-05
3.2447543e-05
3.0728715e-05
2.9100528e-05
2.7558226e-05
2.6097298e-05
2.4713467e-05
2.3402685e-05
2.2161108e-05
2.098509e-05
1.9871181e-05
1.8816113e-05
1.7816786e-05
1.687026e-05
1.5973751e-05
1.5124622e-05
1.4320371e-05
1.3558633e-05
1.2837162e-05
1.2153833e-05
1.1506636e-05
1.0893663e-05
1.03131e-05
9.7632359e-06
9.2424527e-06
8.7492163e-06
8.282068e-06
7.8396245e-06
7.4205868e-06
7.0237135e-06
6.6478342e-06
6.2918408e-06
5.9546782e-06
5.6353583e-06
5.3329283e-06
5.0464976e-06
4.7752247e-06
4.5183035e-06
4.2749769e-06
4.0445278e-06
3.8262746e-06
3.6195714e-06
3.4238036e-06
3.2383962e-06
3.0628014e-06
2.8964978e-06
2.7389998e-06
2.5898394e-06
2.4485709e-06
2.31478e-06
2.1880743e-06
2.0680749e-06
1.9544252e-06
1.8467951e-06
1.7448636e-06
1.6483272e-06
1.5569047e-06
1.4703193e-06
1.3883162e-06
1.3106541e-06
1.2371047e-06
1.1674485e-06
1.1014705e-06
1.0389822e-06
9.7979928e-07
9.237377e-07
8.7063554e-07
8.203355e-07
7.7268049e-07
7.275361e-07
6.8477293e-07
6.4425777e-07
6.0587155e-07
5.6950502e-07
5.3505869e-07
5.0242926e-07
4.7152708e-07
4.4226691e-07
4.145583e-07
3.8832757e-07
3.6349969e-07
3.3999374e-07
3.1774115e-07
2.9668157e-07
2.7674544e-07
2.5786339e-07
2.3998426e-07
2.2305733e-07
2.0702789e-07
1.9184612e-07
1.7746695e-07
1.6384559e-07
1.5094628e-07
1.3872891e-07
1.271579e-07
1.1620214e-07
1.0582159e-07
9.5989592e-08
8.6679493e-08
7.7860142e-08
6.9509308e-08
6.1600278e-08
5.4106325e-08
4.701411e-08
4.0296883e-08
3.3932353e-08
2.7907156e-08
2.2198988e-08
1.6790007e-08
1.1671302e-08
6.8250232e-09
2.2333219e-09
2.2084075e-09
6.7486854e-09
1.1542788e-08
1.6604891e-08
2.1949961e-08
2.7593799e-08
3.3553089e-08
3.9845442e-08
4.6489453e-08
5.350475e-08
6.0912053e-08
6.8733233e-08
7.6991375e-08
8.5710846e-08
9.4917366e-08
1.0463808e-07
1.1490164e-07
1.2573829e-07
1.3717997e-07
1.4926041e-07
1.6201524e-07
1.7548215e-07
1.8970102e-07
2.0471409e-07
2.2056618e-07
2.373049e-07
2.5498085e-07
2.7364787e-07
2.933632e-07
3.1418753e-07
3.3618499e-07
3.5942301e-07
3.8397203e-07
4.0990531e-07
4.3729883e-07
4.6623147e-07
4.9678547e-07
5.2904708e-07
5.6310734e-07
5.9906287e-07
6.370165e-07
6.7707778e-07
7.1936337e-07
7.6399736e-07
8.1111152e-07
8.6084551e-07
9.1334718e-07
9.6877286e-07
1.0272877e-06
1.0890659e-06
1.1542915e-06
1.2231586e-06
1.2958718e-06
1.3726471e-06
1.4537123e-06
1.5393079e-06
1.6296873e-06
1.7251183e-06
1.8258832e-06
1.9322803e-06
2.0446241e-06
2.1632469e-06
2.2884994e-06
2.4207517e-06
2.5603947e-06
2.7078411e-06
2.8635265e-06
3.027911e-06
3.2014801e-06
3.3847467e-06
3.5782521e-06
3.7825679e-06
3.9982978e-06
4.2260787e-06
4.4665835e-06
4.7205225e-06
4.9886455e-06
5.2717444e-06
5.5706549e-06
5.8862596e-06
6.2194902e-06
6.5713303e-06
6.9428185e-06
7.335051e-06
7.7491853e-06
8.1864434e-06
8.648115e-06
9.1355621e-06
9.6502221e-06
1.0193613e-05
1.0767336e-05
1.1373083e-05
1.2012638e-05
1.2687886e-05
1.3400817e-05
1.4153529e-05
1.4948238e-05
1.5787283e-05
1.6673133e-05
1.7608393e-05
1.8595813e-05
1.9638294e-05
2.07389e-05
2.190086e-05
2.3127586e-05
2.4422675e-05
2.5789924e-05
2.7233338e-05
2.8757142e-05
3.0365794e-05
3.2063997e-05
3.3856708e-05
3.574916e-05
3.7746868e-05
3.9855649e-05
4.2081634e-05
4.443129e-05
4.691143e-05
4.9529238e-05
5.2292282e-05
5.5208535e-05
5.8286399e-05
6.153472e-05
6.4962813e-05
6.8580486e-05
7.2398059e-05
7.6426392e-05
8.0676906e-05
8.516161e-05
8.9893128e-05
9.4884722e-05
0.00010015032
0.00010570454
0.00011156271
0.00011774093
0.00012425603
0.00013112566
0.00013836827
0.00014600316
0.00015405047
0.00016253123
0.00017146735
0.0001808816
0.00019079771
0.00020124024
0.00021223467
0.00022380735
0.00023598546
0.00024879699
0.00026227067
0.00027643595
0.00029132289
0.00030696206
0.00032338445
0.00034062136
0.00035870418
0.00037766431
0.00039753288
0.00041834059
0.00044011744
0.00046289251
0.00048669358
0.00051154695
0.000537477
0.0005645059
0.00059265326
0.00062193572
0.00065236661
0.00068395551
0.00071670793
0.00075062486
0.00078570238
0.00082193131
0.00085929675
0.00089777773
0.00093734676
0.00097796942
0.0010196039
0.0010622006
0.0011057014
0.0011500394
0.0011951382
0.001240911
0.0012872606
0.0013340778
0.0013812411
0.0014286158
0.0014760533
0.0015233896
0.0015704449
0.0016170228
0.0016629089
0.0017078701
0.0017516539
0.0017939878
0.001834578
0.0018731098
0.0019092464
0.0019426294
0.0019728786
0.0019995926
0.0020223499
0.0020407098
0.002054215
0.0020623942
0.0020647653
0.002060841
0.0020501341
0.0020321652
0.0020064723
0.0019726215
0.0019302206
0.0018789351
0.0018185073
0.0017487775
0.0016697094
0.0015814179
0.0014842002
0.0013785692
0.0012652895
0.0011454141
0.0010203186
0.00089173371
0.00076178199
0.00063294329
0.00050807435
0.0003904097
0.00028343363
0.00019035358
0.00011534229
5.9215908e-05
2.3177012e-05
6.3263265e-06
1.5437192e-06
6.5813547e-07
5.2258744e-07
5.0324484e-07
5.0061527e-07
5.0031931e-07
5.00252e-07
5.0020061e-07
5.0016908e-07
5.0015727e-07
5.0015295e-07
5.0014642e-07
5.0013569e-07
5.0012313e-07
5.0011083e-07
5.0009916e-07
5.0008762e-07
5.0007586e-07
5.0006387e-07
5.000518e-07
5.0003971e-07
5.0002753e-07
5.0000939e-07
5.0000941e-07
5.0002754e-07
5.0003972e-07
5.0005182e-07
5.0006389e-07
5.0007587e-07
5.0008764e-07
5.0009918e-07
5.0011084e-07
5.0012314e-07
5.001357e-07
5.0014643e-07
5.0015297e-07
5.0015729e-07
5.001691e-07
5.0020064e-07
5.0025203e-07
5.0031933e-07
5.0061528e-07
5.0324478e-07
5.2258705e-07
6.5813293e-07
1.5437048e-06
6.3262639e-06
2.317684e-05
5.9215597e-05
0.00011534184
0.00019035299
0.00028343292
0.00039040889
0.00050807346
0.00063294235
0.00076178102
0.00089173273
0.0010203176
0.0011454131
0.0012652886
0.0013785682
0.0014841993
0.001581417
0.0016697086
0.0017487768
0.0018185066
0.0018789344
0.0019302199
0.0019726209
0.0020064718
0.0020321647
0.0020501335
0.0020608405
0.0020647648
0.0020623937
0.0020542146
0.0020407094
0.0020223495
0.0019995923
0.0019728782
0.0019426291
0.0019092461
0.0018731095
0.0018345778
0.0017939875
0.0017516537
0.0017078699
0.0016629087
0.0016170227
0.0015704448
0.0015233894
0.0014760531
0.0014286157
0.0013812409
0.0013340776
0.0012872605
0.0012409109
0.0011951381
0.0011500393
0.0011057013
0.0010622005
0.0010196038
0.00097796935
0.00093734669
0.00089777767
0.00085929669
0.00082193125
0.00078570233
0.00075062481
0.00071670789
0.00068395548
0.00065236657
0.00062193569
0.00059265323
0.00056450588
0.00053747697
0.00051154693
0.00048669356
0.00046289249
0.00044011742
0.00041834056
0.00039753286
0.00037766429
0.00035870417
0.00034062135
0.00032338444
0.00030696204
0.00029132288
0.00027643595
0.00026227066
0.00024879698
0.00023598546
0.00022380735
0.00021223467
0.00020124023
0.0001907977
0.0001808816
0.00017146734
0.00016253123
0.00015405047
0.00014600315
0.00013836827
0.00013112566
0.00012425603
0.00011774093
0.00011156271
0.00010570454
0.00010015032
9.4884719e-05
8.9893128e-05
8.5161611e-05
8.0676905e-05
7.6426389e-05
7.2398056e-05
6.8580485e-05
6.4962812e-05
6.153472e-05
5.8286398e-05
5.5208533e-05
5.2292278e-05
4.9529237e-05
4.6911432e-05
4.443129e-05
4.2081634e-05
3.985565e-05
3.7746869e-05
3.5749157e-05
3.3856708e-05
3.2063997e-05
3.0365794e-05
2.8757142e-05
2.7233338e-05
2.5789926e-05
2.4422675e-05
2.3127588e-05
2.1900864e-05
2.0738902e-05
1.9638295e-05
1.8595813e-05
1.7608394e-05
1.6673135e-05
1.5787286e-05
1.4948241e-05
1.415353e-05
1.3400818e-05
1.2687887e-05
1.2012635e-05
1.1373081e-05
1.0767337e-05
1.0193614e-05
9.6502203e-06
9.1355586e-06
8.6481136e-06
8.1864445e-06
7.7491848e-06
7.3350516e-06
6.9428185e-06
6.5713295e-06
6.2194899e-06
5.8862576e-06
5.5706564e-06
5.2717451e-06
4.9886438e-06
4.7205212e-06
4.466581e-06
4.2260751e-06
3.9982951e-06
3.7825676e-06
3.5782545e-06
3.3847484e-06
3.2014814e-06
3.027912e-06
2.8635252e-06
2.707841e-06
2.5603971e-06
2.4207531e-06
2.2884996e-06
2.1632487e-06
2.0446262e-06
1.9322796e-06
1.8258827e-06
1.7251182e-06
1.6296862e-06
1.5393088e-06
1.4537124e-06
1.3726452e-06
1.2958686e-06
1.2231571e-06
1.1542936e-06
1.0890657e-06
1.0272868e-06
9.6877507e-07
9.1334838e-07
8.6084674e-07
8.1111474e-07
7.6399715e-07
7.1936121e-07
6.7707916e-07
6.3701945e-07
5.990646e-07
5.631068e-07
5.2904787e-07
4.9678581e-07
4.6623207e-07
4.3730232e-07
4.0990701e-07
3.8397312e-07
3.5942622e-07
3.3618613e-07
3.141849e-07
2.9336282e-07
2.7365112e-07
2.5498126e-07
2.3730274e-07
2.2056549e-07
2.0471551e-07
1.8970357e-07
1.7548518e-07
1.6201606e-07
1.4926089e-07
1.3718003e-07
1.2573829e-07
1.149049e-07
1.046403e-07
9.4918118e-08
8.5711995e-08
7.6991133e-08
6.8733548e-08
6.0912825e-08
5.3502537e-08
4.6489493e-08
3.9847244e-08
3.3553749e-08
2.7595792e-08
2.1951319e-08
1.6602691e-08
1.1541095e-08
6.7488839e-09
2.2084076e-09
2.1921577e-09
6.6990268e-09
1.1457852e-08
1.6482703e-08
2.1788435e-08
2.7390734e-08
3.3306158e-08
3.955219e-08
4.6147285e-08
5.3110927e-08
6.0463683e-08
6.8227263e-08
7.6424581e-08
8.5079825e-08
9.4218524e-08
1.0386762e-07
1.1405556e-07
1.2481237e-07
1.3616974e-07
1.4816115e-07
1.6082197e-07
1.741896e-07
1.883036e-07
2.032059e-07
2.1894095e-07
2.3555595e-07
2.5310111e-07
2.716298e-07
2.9119877e-07
3.1186823e-07
3.3370184e-07
3.5676654e-07
3.8113233e-07
4.0687205e-07
4.3406127e-07
4.627784e-07
4.9310517e-07
5.251272e-07
5.5893485e-07
5.9462393e-07
6.3229636e-07
6.7206074e-07
7.1403275e-07
7.5833542e-07
8.0509942e-07
8.544633e-07
9.0657374e-07
9.6158583e-07
1.0196634e-06
1.0809795e-06
1.1457167e-06
1.2140675e-06
1.2862351e-06
1.3624338e-06
1.4428898e-06
1.5278415e-06
1.6175407e-06
1.712253e-06