/*--------------------------------*- C++ -*----------------------------------*\
| =========                 |                                                 |
| \\      /  F ield         | OpenFOAM: The Open Source CFD Toolbox           |
|  \\    /   O peration     | Version:  2112                                  |
|   \\  /    A nd           | Website:  www.openfoam.com                      |
|    \\/     M anipulation  |                                                 |
\*---------------------------------------------------------------------------*/
FoamFile
{
    version     2.0;
    format      ascii;
    arch        "LSB;label=32;scalar=64";
    class       volScalarField;
    location    "4416";
    object      p;
}
// * * * * * * * * * * * * * * * * * * * * * * * * * * * * * * * * * * * * * //

dimensions      [0 2 -2 0 0 0 0];

internalField   nonuniform List<scalar> 
81920
(
70.509502
70.509502
70.509502
70.509502
70.509502
70.509502
70.509502
70.509502
70.509502
70.509502
70.509502
70.509502
70.509502
70.509502
70.509501
70.509501
70.509501
70.509501
70.509501
70.509501
70.509501
70.509501
70.509501
70.509501
70.509501
70.509501
70.509501
70.509501
70.509501
70.509502
70.509502
70.509502
70.509502
70.509502
70.509502
70.509502
70.509502
70.509502
70.509502
70.509502
70.509502
70.509503
70.509503
70.509503
70.509503
70.509503
70.509503
70.509504
70.509504
70.509504
70.509504
70.509504
70.509505
70.509505
70.509505
70.509505
70.509506
70.509506
70.509506
70.509506
70.509507
70.509507
70.509507
70.509508
70.509508
70.509508
70.509509
70.509509
70.50951
70.50951
70.50951
70.509511
70.509511
70.509512
70.509512
70.509513
70.509513
70.509514
70.509515
70.509515
70.509516
70.509517
70.509518
70.509518
70.509519
70.50952
70.509521
70.509522
70.509523
70.509524
70.509525
70.509526
70.509527
70.509528
70.50953
70.509531
70.509532
70.509534
70.509535
70.509537
70.509539
70.50954
70.509542
70.509544
70.509546
70.509548
70.50955
70.509552
70.509554
70.509557
70.509559
70.509561
70.509564
70.509567
70.50957
70.509572
70.509575
70.509578
70.509582
70.509585
70.509588
70.509592
70.509595
70.509599
70.509603
70.509607
70.509611
70.509615
70.509619
70.509623
70.509628
70.509632
70.509637
70.509641
70.509646
70.509651
70.509656
70.50966
70.509665
70.50967
70.509675
70.50968
70.509685
70.50969
70.509695
70.5097
70.509705
70.509709
70.509714
70.509718
70.509723
70.509727
70.509731
70.509735
70.509738
70.509741
70.509744
70.509747
70.509749
70.509751
70.509753
70.509754
70.509755
70.509755
70.509754
70.509753
70.509752
70.509749
70.509746
70.509743
70.509738
70.509733
70.509727
70.50972
70.509712
70.509703
70.509693
70.509682
70.50967
70.509657
70.509642
70.509627
70.50961
70.509592
70.509572
70.509551
70.509529
70.509505
70.50948
70.509453
70.509424
70.509394
70.509362
70.509328
70.509292
70.509254
70.509214
70.509171
70.509127
70.509079
70.509029
70.508976
70.508921
70.508862
70.5088
70.508734
70.508666
70.508593
70.508517
70.508437
70.508354
70.508267
70.508176
70.508082
70.507984
70.507883
70.507778
70.50767
70.507559
70.507444
70.507327
70.507206
70.507083
70.506957
70.506828
70.506697
70.506564
70.506428
70.506292
70.506154
70.506015
70.505875
70.505735
70.505595
70.505456
70.505319
70.505182
70.505048
70.504917
70.504788
70.504664
70.504544
70.504428
70.504318
70.504214
70.504117
70.504026
70.503943
70.503868
70.503801
70.503743
70.503694
70.503655
70.503625
70.503605
70.503595
70.503595
70.503605
70.503625
70.503655
70.503694
70.503743
70.503801
70.503868
70.503943
70.504026
70.504117
70.504214
70.504318
70.504428
70.504544
70.504664
70.504788
70.504917
70.505048
70.505182
70.505319
70.505456
70.505595
70.505735
70.505875
70.506015
70.506154
70.506292
70.506428
70.506564
70.506697
70.506828
70.506957
70.507083
70.507206
70.507327
70.507444
70.507559
70.50767
70.507778
70.507883
70.507984
70.508082
70.508176
70.508267
70.508354
70.508437
70.508517
70.508593
70.508666
70.508734
70.5088
70.508862
70.508921
70.508976
70.509029
70.509079
70.509127
70.509171
70.509214
70.509254
70.509292
70.509328
70.509362
70.509394
70.509424
70.509453
70.50948
70.509505
70.509529
70.509551
70.509572
70.509592
70.50961
70.509627
70.509642
70.509657
70.50967
70.509682
70.509693
70.509703
70.509712
70.50972
70.509727
70.509733
70.509738
70.509743
70.509746
70.509749
70.509752
70.509753
70.509754
70.509755
70.509755
70.509754
70.509753
70.509751
70.509749
70.509747
70.509744
70.509741
70.509738
70.509735
70.509731
70.509727
70.509723
70.509718
70.509714
70.509709
70.509705
70.5097
70.509695
70.50969
70.509685
70.50968
70.509675
70.50967
70.509665
70.50966
70.509656
70.509651
70.509646
70.509641
70.509637
70.509632
70.509628
70.509623
70.509619
70.509615
70.509611
70.509607
70.509603
70.509599
70.509595
70.509592
70.509588
70.509585
70.509582
70.509578
70.509575
70.509572
70.50957
70.509567
70.509564
70.509561
70.509559
70.509557
70.509554
70.509552
70.50955
70.509548
70.509546
70.509544
70.509542
70.50954
70.509539
70.509537
70.509535
70.509534
70.509532
70.509531
70.50953
70.509528
70.509527
70.509526
70.509525
70.509524
70.509523
70.509522
70.509521
70.50952
70.509519
70.509518
70.509518
70.509517
70.509516
70.509515
70.509515
70.509514
70.509513
70.509513
70.509512
70.509512
70.509511
70.509511
70.50951
70.50951
70.50951
70.509509
70.509509
70.509508
70.509508
70.509508
70.509507
70.509507
70.509507
70.509506
70.509506
70.509506
70.509506
70.509505
70.509505
70.509505
70.509505
70.509504
70.509504
70.509504
70.509504
70.509504
70.509503
70.509503
70.509503
70.509503
70.509503
70.509503
70.509502
70.509502
70.509502
70.509502
70.509502
70.509502
70.509502
70.509502
70.509502
70.509502
70.509502
70.509502
70.509501
70.509501
70.509501
70.509501
70.509501
70.509501
70.509501
70.509501
70.509501
70.509501
70.509501
70.509501
70.509501
70.509501
70.509501
70.509502
70.509502
70.509502
70.509502
70.509502
70.509502
70.509502
70.509502
70.509502
70.509502
70.509502
70.509502
70.509502
70.509502
69.819655
69.819655
69.819655
69.819655
69.819655
69.819655
69.819655
69.819655
69.819655
69.819655
69.819655
69.819655
69.819655
69.819655
69.819655
69.819655
69.819655
69.819655
69.819655
69.819655
69.819655
69.819655
69.819655
69.819655
69.819655
69.819655
69.819655
69.819655
69.819655
69.819655
69.819655
69.819655
69.819655
69.819655
69.819655
69.819655
69.819655
69.819655
69.819655
69.819655
69.819655
69.819655
69.819655
69.819655
69.819655
69.819655
69.819655
69.819655
69.819655
69.819655
69.819655
69.819655
69.819655
69.819655
69.819655
69.819655
69.819655
69.819655
69.819655
69.819655
69.819655
69.819655
69.819655
69.819655
69.819655
69.819655
69.819655
69.819655
69.819655
69.819655
69.819655
69.819655
69.819655
69.819655
69.819655
69.819655
69.819655
69.819655
69.819655
69.819655
69.819655
69.819655
69.819655
69.819655
69.819656
69.819656
69.819656
69.819656
69.819656
69.819656
69.819656
69.819656
69.819656
69.819656
69.819656
69.819657
69.819657
69.819657
69.819657
69.819657
69.819657
69.819657
69.819658
69.819658
69.819658
69.819658
69.819659
69.819659
69.819659
69.819659
69.81966
69.81966
69.81966
69.819661
69.819661
69.819662
69.819662
69.819663
69.819663
69.819664
69.819664
69.819665
69.819665
69.819666
69.819667
69.819668
69.819669
69.81967
69.81967
69.819672
69.819673
69.819674
69.819675
69.819676
69.819678
69.819679
69.819681
69.819683
69.819685
69.819687
69.819689
69.819691
69.819693
69.819696
69.819698
69.819701
69.819704
69.819708
69.819711
69.819715
69.819719
69.819723
69.819727
69.819732
69.819737
69.819742
69.819747
69.819753
69.819759
69.819766
69.819772
69.81978
69.819787
69.819795
69.819804
69.819812
69.819822
69.819831
69.819841
69.819852
69.819863
69.819875
69.819887
69.8199
69.819913
69.819927
69.819941
69.819956
69.819972
69.819988
69.820005
69.820022
69.82004
69.820058
69.820078
69.820097
69.820118
69.820139
69.82016
69.820182
69.820205
69.820229
69.820253
69.820278
69.820303
69.82033
69.820357
69.820385
69.820415
69.820445
69.820476
69.820509
69.820543
69.820578
69.820616
69.820655
69.820695
69.820738
69.820783
69.82083
69.820878
69.820929
69.820981
69.821035
69.82109
69.821147
69.821205
69.821264
69.821324
69.821385
69.821447
69.821511
69.821576
69.821642
69.82171
69.821779
69.821849
69.82192
69.821993
69.822066
69.82214
69.822215
69.82229
69.822365
69.822439
69.822513
69.822587
69.82266
69.822731
69.822801
69.822868
69.822934
69.822997
69.823057
69.823115
69.823168
69.823218
69.823264
69.823306
69.823343
69.823375
69.823403
69.823425
69.823442
69.823453
69.823458
69.823458
69.823453
69.823442
69.823425
69.823403
69.823375
69.823343
69.823306
69.823264
69.823218
69.823168
69.823115
69.823057
69.822997
69.822934
69.822868
69.822801
69.822731
69.82266
69.822587
69.822513
69.822439
69.822365
69.82229
69.822215
69.82214
69.822066
69.821993
69.82192
69.821849
69.821779
69.82171
69.821642
69.821576
69.821511
69.821447
69.821385
69.821324
69.821264
69.821205
69.821147
69.82109
69.821035
69.820981
69.820929
69.820878
69.82083
69.820783
69.820738
69.820695
69.820655
69.820616
69.820578
69.820543
69.820509
69.820476
69.820445
69.820415
69.820385
69.820357
69.82033
69.820303
69.820278
69.820253
69.820229
69.820205
69.820182
69.82016
69.820139
69.820118
69.820097
69.820078
69.820058
69.82004
69.820022
69.820005
69.819988
69.819972
69.819956
69.819941
69.819927
69.819913
69.8199
69.819887
69.819875
69.819863
69.819852
69.819841
69.819831
69.819822
69.819812
69.819804
69.819795
69.819787
69.81978
69.819772
69.819766
69.819759
69.819753
69.819747
69.819742
69.819737
69.819732
69.819727
69.819723
69.819719
69.819715
69.819711
69.819708
69.819704
69.819701
69.819698
69.819696
69.819693
69.819691
69.819689
69.819687
69.819685
69.819683
69.819681
69.819679
69.819678
69.819676
69.819675
69.819674
69.819673
69.819672
69.81967
69.81967
69.819669
69.819668
69.819667
69.819666
69.819665
69.819665
69.819664
69.819664
69.819663
69.819663
69.819662
69.819662
69.819661
69.819661
69.81966
69.81966
69.81966
69.819659
69.819659
69.819659
69.819659
69.819658
69.819658
69.819658
69.819658
69.819657
69.819657
69.819657
69.819657
69.819657
69.819657
69.819657
69.819656
69.819656
69.819656
69.819656
69.819656
69.819656
69.819656
69.819656
69.819656
69.819656
69.819656
69.819655
69.819655
69.819655
69.819655
69.819655
69.819655
69.819655
69.819655
69.819655
69.819655
69.819655
69.819655
69.819655
69.819655
69.819655
69.819655
69.819655
69.819655
69.819655
69.819655
69.819655
69.819655
69.819655
69.819655
69.819655
69.819655
69.819655
69.819655
69.819655
69.819655
69.819655
69.819655
69.819655
69.819655
69.819655
69.819655
69.819655
69.819655
69.819655
69.819655
69.819655
69.819655
69.819655
69.819655
69.819655
69.819655
69.819655
69.819655
69.819655
69.819655
69.819655
69.819655
69.819655
69.819655
69.819655
69.819655
69.819655
69.819655
69.819655
69.819655
69.819655
69.819655
69.819655
69.819655
69.819655
69.819655
69.819655
69.819655
69.819655
69.819655
69.819655
69.819655
69.819655
69.819655
69.819655
69.819655
69.819655
69.819655
69.819655
69.819655
69.819655
69.819655
69.819655
69.819655
69.210804
69.210804
69.210804
69.210804
69.210804
69.210804
69.210804
69.210804
69.210804
69.210804
69.210804
69.210804
69.210804
69.210804
69.210804
69.210804
69.210804
69.210804
69.210804
69.210804
69.210804
69.210804
69.210804
69.210804
69.210804
69.210804
69.210804
69.210804
69.210804
69.210804
69.210804
69.210804
69.210804
69.210804
69.210804
69.210804
69.210804
69.210804
69.210804
69.210804
69.210804
69.210804
69.210804
69.210804
69.210804
69.210804
69.210804
69.210804
69.210804
69.210804
69.210804
69.210804
69.210804
69.210804
69.210804
69.210804
69.210804
69.210804
69.210804
69.210804
69.210804
69.210804
69.210804
69.210804
69.210804
69.210804
69.210804
69.210804
69.210804
69.210804
69.210804
69.210804
69.210804
69.210804
69.210804
69.210804
69.210804
69.210804
69.210804
69.210804
69.210804
69.210804
69.210804
69.210804
69.210804
69.210804
69.210804
69.210804
69.210804
69.210804
69.210804
69.210804
69.210804
69.210804
69.210804
69.210804
69.210804
69.210804
69.210804
69.210804
69.210804
69.210804
69.210804
69.210804
69.210804
69.210804
69.210804
69.210804
69.210805
69.210805
69.210805
69.210805
69.210805
69.210805
69.210805
69.210805
69.210805
69.210805
69.210805
69.210806
69.210806
69.210806
69.210806
69.210806
69.210806
69.210806
69.210807
69.210807
69.210807
69.210807
69.210807
69.210808
69.210808
69.210808
69.210809
69.210809
69.210809
69.21081
69.21081
69.21081
69.210811
69.210811
69.210812
69.210812
69.210813
69.210813
69.210814
69.210815
69.210815
69.210816
69.210817
69.210818
69.210819
69.21082
69.210821
69.210822
69.210824
69.210825
69.210826
69.210828
69.21083
69.210832
69.210834
69.210836
69.210838
69.21084
69.210843
69.210846
69.210849
69.210852
69.210855
69.210859
69.210863
69.210867
69.210872
69.210877
69.210882
69.210887
69.210893
69.210899
69.210905
69.210912
69.210919
69.210927
69.210935
69.210943
69.210952
69.210961
69.21097
69.21098
69.21099
69.211001
69.211011
69.211022
69.211033
69.211044
69.211056
69.211067
69.211078
69.211089
69.2111
69.21111
69.211121
69.21113
69.21114
69.211148
69.211156
69.211164
69.211171
69.211178
69.211184
69.211189
69.211195
69.2112
69.211205
69.211211
69.211216
69.211222
69.211228
69.211234
69.21124
69.211246
69.211251
69.211256
69.21126
69.211264
69.211266
69.211268
69.21127
69.211271
69.211272
69.211273
69.211274
69.211275
69.211276
69.211276
69.211277
69.211277
69.211278
69.211278
69.211278
69.211278
69.211278
69.211278
69.211277
69.211277
69.211277
69.211276
69.211276
69.211275
69.211275
69.211275
69.211274
69.211274
69.211274
69.211274
69.211274
69.211274
69.211274
69.211274
69.211275
69.211275
69.211275
69.211276
69.211276
69.211277
69.211277
69.211277
69.211278
69.211278
69.211278
69.211278
69.211278
69.211278
69.211277
69.211277
69.211276
69.211276
69.211275
69.211274
69.211273
69.211272
69.211271
69.21127
69.211268
69.211266
69.211264
69.21126
69.211256
69.211251
69.211246
69.21124
69.211234
69.211228
69.211222
69.211216
69.211211
69.211205
69.2112
69.211195
69.211189
69.211184
69.211178
69.211171
69.211164
69.211156
69.211148
69.21114
69.21113
69.211121
69.21111
69.2111
69.211089
69.211078
69.211067
69.211056
69.211044
69.211033
69.211022
69.211011
69.211001
69.21099
69.21098
69.21097
69.210961
69.210952
69.210943
69.210935
69.210927
69.210919
69.210912
69.210905
69.210899
69.210893
69.210887
69.210882
69.210877
69.210872
69.210867
69.210863
69.210859
69.210855
69.210852
69.210849
69.210846
69.210843
69.21084
69.210838
69.210836
69.210834
69.210832
69.21083
69.210828
69.210826
69.210825
69.210824
69.210822
69.210821
69.21082
69.210819
69.210818
69.210817
69.210816
69.210815
69.210815
69.210814
69.210813
69.210813
69.210812
69.210812
69.210811
69.210811
69.21081
69.21081
69.21081
69.210809
69.210809
69.210809
69.210808
69.210808
69.210808
69.210807
69.210807
69.210807
69.210807
69.210807
69.210806
69.210806
69.210806
69.210806
69.210806
69.210806
69.210806
69.210805
69.210805
69.210805
69.210805
69.210805
69.210805
69.210805
69.210805
69.210805
69.210805
69.210805
69.210804
69.210804
69.210804
69.210804
69.210804
69.210804
69.210804
69.210804
69.210804
69.210804
69.210804
69.210804
69.210804
69.210804
69.210804
69.210804
69.210804
69.210804
69.210804
69.210804
69.210804
69.210804
69.210804
69.210804
69.210804
69.210804
69.210804
69.210804
69.210804
69.210804
69.210804
69.210804
69.210804
69.210804
69.210804
69.210804
69.210804
69.210804
69.210804
69.210804
69.210804
69.210804
69.210804
69.210804
69.210804
69.210804
69.210804
69.210804
69.210804
69.210804
69.210804
69.210804
69.210804
69.210804
69.210804
69.210804
69.210804
69.210804
69.210804
69.210804
69.210804
69.210804
69.210804
69.210804
69.210804
69.210804
69.210804
69.210804
69.210804
69.210804
69.210804
69.210804
69.210804
69.210804
69.210804
69.210804
69.210804
69.210804
69.210804
69.210804
69.210804
69.210804
69.210804
69.210804
69.210804
69.210804
69.210804
69.210804
69.210804
69.210804
69.210804
69.210804
69.210804
69.210804
69.210804
69.210803
69.210803
69.210803
69.210803
69.210803
69.210803
69.210803
69.210803
69.210803
69.210803
69.210803
69.210803
69.210803
68.82716
68.82716
68.82716
68.82716
68.82716
68.82716
68.82716
68.82716
68.82716
68.82716
68.82716
68.82716
68.82716
68.82716
68.82716
68.82716
68.82716
68.82716
68.82716
68.82716
68.82716
68.82716
68.82716
68.82716
68.82716
68.82716
68.82716
68.82716
68.82716
68.82716
68.82716
68.82716
68.82716
68.82716
68.82716
68.82716
68.82716
68.82716
68.82716
68.82716
68.82716
68.82716
68.82716
68.82716
68.82716
68.82716
68.82716
68.82716
68.82716
68.82716
68.82716
68.82716
68.82716
68.82716
68.82716
68.82716
68.82716
68.82716
68.82716
68.82716
68.82716
68.82716
68.82716
68.82716
68.82716
68.82716
68.82716
68.82716
68.82716
68.82716
68.82716
68.82716
68.82716
68.82716
68.82716
68.82716
68.82716
68.82716
68.82716
68.82716
68.82716
68.82716
68.82716
68.82716
68.82716
68.82716
68.82716
68.82716
68.82716
68.82716
68.82716
68.82716
68.82716
68.82716
68.82716
68.82716
68.82716
68.82716
68.82716
68.82716
68.82716
68.82716
68.82716
68.82716
68.82716
68.827161
68.827161
68.827161
68.827161
68.827161
68.827161
68.827161
68.827161
68.827161
68.827161
68.827161
68.827161
68.827161
68.827161
68.827161
68.827161
68.827161
68.827161
68.827162
68.827162
68.827162
68.827162
68.827162
68.827162
68.827162
68.827162
68.827162
68.827163
68.827163
68.827163
68.827163
68.827163
68.827164
68.827164
68.827164
68.827164
68.827165
68.827165
68.827165
68.827165
68.827166
68.827166
68.827167
68.827167
68.827167
68.827168
68.827168
68.827169
68.827169
68.82717
68.827171
68.827171
68.827172
68.827173
68.827174
68.827175
68.827175
68.827176
68.827178
68.827179
68.82718
68.827181
68.827183
68.827184
68.827186
68.827188
68.827189
68.827191
68.827194
68.827196
68.827198
68.827201
68.827204
68.827207
68.82721
68.827214
68.827218
68.827222
68.827226
68.82723
68.827235
68.827241
68.827246
68.827252
68.827258
68.827265
68.827272
68.827279
68.827287
68.827295
68.827304
68.827312
68.827322
68.827331
68.827341
68.827352
68.827362
68.827373
68.827384
68.827395
68.827406
68.827417
68.827428
68.827439
68.827449
68.82746
68.827469
68.827478
68.827487
68.827495
68.827502
68.827508
68.827514
68.827519
68.827524
68.827528
68.827532
68.827536
68.82754
68.827543
68.827546
68.827549
68.827551
68.827553
68.827553
68.827553
68.827552
68.82755
68.827548
68.827546
68.827543
68.827541
68.827539
68.827536
68.827534
68.827532
68.827529
68.827527
68.827525
68.827523
68.827521
68.827519
68.827517
68.827516
68.827514
68.827513
68.827512
68.827511
68.82751
68.82751
68.82751
68.82751
68.82751
68.82751
68.827511
68.827512
68.827513
68.827514
68.827516
68.827517
68.827519
68.827521
68.827523
68.827525
68.827527
68.827529
68.827532
68.827534
68.827536
68.827539
68.827541
68.827543
68.827546
68.827548
68.82755
68.827552
68.827553
68.827553
68.827553
68.827551
68.827549
68.827546
68.827543
68.82754
68.827536
68.827532
68.827528
68.827524
68.827519
68.827514
68.827508
68.827502
68.827495
68.827487
68.827478
68.827469
68.82746
68.827449
68.827439
68.827428
68.827417
68.827406
68.827395
68.827384
68.827373
68.827362
68.827352
68.827341
68.827331
68.827322
68.827312
68.827304
68.827295
68.827287
68.827279
68.827272
68.827265
68.827258
68.827252
68.827246
68.827241
68.827235
68.82723
68.827226
68.827222
68.827218
68.827214
68.82721
68.827207
68.827204
68.827201
68.827198
68.827196
68.827194
68.827191
68.827189
68.827188
68.827186
68.827184
68.827183
68.827181
68.82718
68.827179
68.827178
68.827176
68.827175
68.827175
68.827174
68.827173
68.827172
68.827171
68.827171
68.82717
68.827169
68.827169
68.827168
68.827168
68.827167
68.827167
68.827167
68.827166
68.827166
68.827165
68.827165
68.827165
68.827165
68.827164
68.827164
68.827164
68.827164
68.827163
68.827163
68.827163
68.827163
68.827163
68.827162
68.827162
68.827162
68.827162
68.827162
68.827162
68.827162
68.827162
68.827162
68.827161
68.827161
68.827161
68.827161
68.827161
68.827161
68.827161
68.827161
68.827161
68.827161
68.827161
68.827161
68.827161
68.827161
68.827161
68.827161
68.827161
68.827161
68.82716
68.82716
68.82716
68.82716
68.82716
68.82716
68.82716
68.82716
68.82716
68.82716
68.82716
68.82716
68.82716
68.82716
68.82716
68.82716
68.82716
68.82716
68.82716
68.82716
68.82716
68.82716
68.82716
68.82716
68.82716
68.82716
68.82716
68.82716
68.82716
68.82716
68.82716
68.82716
68.82716
68.82716
68.82716
68.82716
68.82716
68.82716
68.82716
68.82716
68.82716
68.82716
68.82716
68.82716
68.82716
68.82716
68.82716
68.82716
68.82716
68.82716
68.82716
68.82716
68.82716
68.82716
68.82716
68.82716
68.82716
68.82716
68.82716
68.82716
68.82716
68.82716
68.82716
68.82716
68.82716
68.82716
68.82716
68.82716
68.82716
68.82716
68.82716
68.82716
68.82716
68.82716
68.82716
68.82716
68.82716
68.82716
68.82716
68.82716
68.82716
68.82716
68.82716
68.82716
68.82716
68.82716
68.82716
68.82716
68.82716
68.82716
68.82716
68.82716
68.82716
68.82716
68.82716
68.82716
68.82716
68.82716
68.82716
68.82716
68.82716
68.82716
68.82716
68.82716
68.82716
68.482315
68.482315
68.482315
68.482315
68.482315
68.482315
68.482315
68.482315
68.482315
68.482315
68.482315
68.482315
68.482315
68.482315
68.482315
68.482315
68.482315
68.482315
68.482315
68.482315
68.482315
68.482315
68.482315
68.482315
68.482315
68.482315
68.482315
68.482315
68.482315
68.482315
68.482315
68.482315
68.482315
68.482315
68.482315
68.482315
68.482315
68.482315
68.482315
68.482315
68.482315
68.482315
68.482315
68.482315
68.482315
68.482315
68.482315
68.482315
68.482315
68.482315
68.482315
68.482315
68.482315
68.482315
68.482315
68.482315
68.482315
68.482315
68.482315
68.482315
68.482315
68.482315
68.482315
68.482315
68.482315
68.482315
68.482315
68.482315
68.482315
68.482315
68.482315
68.482315
68.482315
68.482315
68.482315
68.482315
68.482315
68.482315
68.482315
68.482315
68.482315
68.482315
68.482315
68.482315
68.482315
68.482315
68.482315
68.482315
68.482315
68.482315
68.482315
68.482315
68.482315
68.482315
68.482316
68.482316
68.482316
68.482316
68.482316
68.482316
68.482316
68.482316
68.482316
68.482316
68.482316
68.482316
68.482316
68.482316
68.482316
68.482316
68.482316
68.482316
68.482316
68.482316
68.482316
68.482316
68.482316
68.482316
68.482316
68.482316
68.482316
68.482316
68.482316
68.482316
68.482316
68.482316
68.482317
68.482317
68.482317
68.482317
68.482317
68.482317
68.482317
68.482317
68.482317
68.482317
68.482317
68.482318
68.482318
68.482318
68.482318
68.482318
68.482318
68.482319
68.482319
68.482319
68.482319
68.482319
68.48232
68.48232
68.48232
68.482321
68.482321
68.482321
68.482322
68.482322
68.482322
68.482323
68.482323
68.482324
68.482324
68.482325
68.482326
68.482326
68.482327
68.482328
68.482329
68.48233
68.482331
68.482332
68.482333
68.482334
68.482335
68.482336
68.482338
68.482339
68.482341
68.482343
68.482345
68.482347
68.482349
68.482351
68.482354
68.482357
68.48236
68.482363
68.482366
68.48237
68.482374
68.482378
68.482382
68.482387
68.482392
68.482397
68.482403
68.482409
68.482416
68.482423
68.48243
68.482438
68.482446
68.482454
68.482463
68.482472
68.482482
68.482492
68.482503
68.482514
68.482525
68.482537
68.482549
68.482561
68.482573
68.482585
68.482597
68.482609
68.482621
68.482633
68.482645
68.482656
68.482666
68.482677
68.482687
68.482696
68.482706
68.482715
68.482725
68.482734
68.482744
68.482753
68.482762
68.482771
68.482779
68.482786
68.482792
68.482797
68.482801
68.482805
68.482808
68.482812
68.482815
68.482818
68.482821
68.482824
68.482827
68.48283
68.482832
68.482834
68.482836
68.482838
68.48284
68.482841
68.482842
68.482843
68.482844
68.482844
68.482844
68.482844
68.482843
68.482842
68.482841
68.48284
68.482838
68.482836
68.482834
68.482832
68.48283
68.482827
68.482824
68.482821
68.482818
68.482815
68.482812
68.482808
68.482805
68.482801
68.482797
68.482792
68.482786
68.482779
68.482771
68.482762
68.482753
68.482744
68.482734
68.482725
68.482715
68.482706
68.482696
68.482687
68.482677
68.482666
68.482656
68.482645
68.482633
68.482621
68.482609
68.482597
68.482585
68.482573
68.482561
68.482549
68.482537
68.482525
68.482514
68.482503
68.482492
68.482482
68.482472
68.482463
68.482454
68.482446
68.482438
68.48243
68.482423
68.482416
68.482409
68.482403
68.482397
68.482392
68.482387
68.482382
68.482378
68.482374
68.48237
68.482366
68.482363
68.48236
68.482357
68.482354
68.482351
68.482349
68.482347
68.482345
68.482343
68.482341
68.482339
68.482338
68.482336
68.482335
68.482334
68.482333
68.482332
68.482331
68.48233
68.482329
68.482328
68.482327
68.482326
68.482326
68.482325
68.482324
68.482324
68.482323
68.482323
68.482322
68.482322
68.482322
68.482321
68.482321
68.482321
68.48232
68.48232
68.48232
68.482319
68.482319
68.482319
68.482319
68.482319
68.482318
68.482318
68.482318
68.482318
68.482318
68.482318
68.482317
68.482317
68.482317
68.482317
68.482317
68.482317
68.482317
68.482317
68.482317
68.482317
68.482317
68.482316
68.482316
68.482316
68.482316
68.482316
68.482316
68.482316
68.482316
68.482316
68.482316
68.482316
68.482316
68.482316
68.482316
68.482316
68.482316
68.482316
68.482316
68.482316
68.482316
68.482316
68.482316
68.482316
68.482316
68.482316
68.482316
68.482316
68.482316
68.482316
68.482316
68.482316
68.482316
68.482315
68.482315
68.482315
68.482315
68.482315
68.482315
68.482315
68.482315
68.482315
68.482315
68.482315
68.482315
68.482315
68.482315
68.482315
68.482315
68.482315
68.482315
68.482315
68.482315
68.482315
68.482315
68.482315
68.482315
68.482315
68.482315
68.482315
68.482315
68.482315
68.482315
68.482315
68.482315
68.482315
68.482315
68.482315
68.482315
68.482315
68.482315
68.482315
68.482315
68.482315
68.482315
68.482315
68.482315
68.482315
68.482315
68.482315
68.482315
68.482315
68.482315
68.482315
68.482315
68.482315
68.482315
68.482315
68.482315
68.482315
68.482315
68.482315
68.482315
68.482315
68.482315
68.482315
68.482315
68.482315
68.482315
68.482315
68.482315
68.482315
68.482315
68.482315
68.482315
68.482315
68.482315
68.482315
68.482315
68.482315
68.482315
68.482315
68.482315
68.482315
68.482315
68.482315
68.482315
68.482315
68.482315
68.482315
68.482315
68.482315
68.482315
68.482315
68.482315
68.482315
68.482315
68.094728
68.094728
68.094728
68.094728
68.094728
68.094728
68.094728
68.094728
68.094728
68.094728
68.094728
68.094728
68.094728
68.094728
68.094728
68.094728
68.094728
68.094728
68.094728
68.094728
68.094728
68.094728
68.094728
68.094728
68.094728
68.094728
68.094728
68.094728
68.094728
68.094728
68.094728
68.094728
68.094728
68.094728
68.094728
68.094728
68.094728
68.094728
68.094728
68.094728
68.094728
68.094728
68.094728
68.094728
68.094728
68.094728
68.094728
68.094728
68.094728
68.094728
68.094728
68.094728
68.094728
68.094728
68.094728
68.094728
68.094728
68.094728
68.094728
68.094728
68.094728
68.094728
68.094728
68.094728
68.094728
68.094728
68.094728
68.094728
68.094728
68.094728
68.094728
68.094728
68.094728
68.094728
68.094728
68.094728
68.094728
68.094728
68.094728
68.094728
68.094728
68.094728
68.094728
68.094728
68.094728
68.094728
68.094728
68.094728
68.094728
68.094728
68.094728
68.094728
68.094728
68.094728
68.094728
68.094728
68.094728
68.094728
68.094728
68.094728
68.094728
68.094728
68.094728
68.094728
68.094728
68.094728
68.094728
68.094728
68.094728
68.094728
68.094728
68.094728
68.094728
68.094728
68.094728
68.094728
68.094728
68.094728
68.094728
68.094728
68.094728
68.094728
68.094728
68.094728
68.094728
68.094728
68.094728
68.094728
68.094728
68.094729
68.094729
68.094729
68.094729
68.094729
68.094729
68.094729
68.094729
68.094729
68.094729
68.094729
68.094729
68.094729
68.09473
68.09473
68.09473
68.09473
68.09473
68.09473
68.09473
68.09473
68.094731
68.094731
68.094731
68.094731
68.094732
68.094732
68.094732
68.094732
68.094733
68.094733
68.094733
68.094734
68.094734
68.094734
68.094735
68.094735
68.094736
68.094736
68.094737
68.094738
68.094738
68.094739
68.09474
68.094741
68.094741
68.094742
68.094744
68.094745
68.094746
68.094747
68.094749
68.09475
68.094752
68.094754
68.094756
68.094758
68.09476
68.094762
68.094765
68.094768
68.094771
68.094774
68.094777
68.094781
68.094785
68.094789
68.094794
68.094799
68.094804
68.094809
68.094815
68.094821
68.094828
68.094835
68.094842
68.09485
68.094858
68.094867
68.094876
68.094886
68.094896
68.094906
68.094917
68.094928
68.094939
68.09495
68.094962
68.094974
68.094986
68.094998
68.09501
68.095022
68.095033
68.095045
68.095056
68.095067
68.095077
68.095087
68.095097
68.095107
68.095117
68.095128
68.095138
68.095148
68.095158
68.095168
68.095177
68.095185
68.095192
68.095197
68.095202
68.095206
68.09521
68.095214
68.095217
68.095221
68.095224
68.095227
68.095229
68.095232
68.095234
68.095235
68.095237
68.095238
68.095238
68.095239
68.095239
68.095238
68.095238
68.095237
68.095235
68.095234
68.095232
68.095229
68.095227
68.095224
68.095221
68.095217
68.095214
68.09521
68.095206
68.095202
68.095197
68.095192
68.095185
68.095177
68.095168
68.095158
68.095148
68.095138
68.095128
68.095117
68.095107
68.095097
68.095087
68.095077
68.095067
68.095056
68.095045
68.095033
68.095022
68.09501
68.094998
68.094986
68.094974
68.094962
68.09495
68.094939
68.094928
68.094917
68.094906
68.094896
68.094886
68.094876
68.094867
68.094858
68.09485
68.094842
68.094835
68.094828
68.094821
68.094815
68.094809
68.094804
68.094799
68.094794
68.094789
68.094785
68.094781
68.094777
68.094774
68.094771
68.094768
68.094765
68.094762
68.09476
68.094758
68.094756
68.094754
68.094752
68.09475
68.094749
68.094747
68.094746
68.094745
68.094744
68.094742
68.094741
68.094741
68.09474
68.094739
68.094738
68.094738
68.094737
68.094736
68.094736
68.094735
68.094735
68.094734
68.094734
68.094734
68.094733
68.094733
68.094733
68.094732
68.094732
68.094732
68.094732
68.094731
68.094731
68.094731
68.094731
68.09473
68.09473
68.09473
68.09473
68.09473
68.09473
68.09473
68.09473
68.094729
68.094729
68.094729
68.094729
68.094729
68.094729
68.094729
68.094729
68.094729
68.094729
68.094729
68.094729
68.094729
68.094728
68.094728
68.094728
68.094728
68.094728
68.094728