/*--------------------------------*- C++ -*----------------------------------*\
| =========                 |                                                 |
| \\      /  F ield         | OpenFOAM: The Open Source CFD Toolbox           |
|  \\    /   O peration     | Version:  2112                                  |
|   \\  /    A nd           | Website:  www.openfoam.com                      |
|    \\/     M anipulation  |                                                 |
\*---------------------------------------------------------------------------*/
FoamFile
{
    version     2.0;
    format      ascii;
    arch        "LSB;label=32;scalar=64";
    class       surfaceScalarField;
    location    "4416";
    object      phi;
}
// * * * * * * * * * * * * * * * * * * * * * * * * * * * * * * * * * * * * * //

dimensions      [0 3 -1 0 0 0 0];

oriented        oriented;

internalField   nonuniform List<scalar> 
163168
(
3.9931522e-07
6.8476876e-10
8.1946994e-07
2.2095775e-09
1.261458e-06
3.9904949e-09
1.7263095e-06
6.0614745e-09
2.2150911e-06
8.4606207e-09
2.7289034e-06
1.1230676e-08
3.268882e-06
1.4419559e-08
3.8361956e-06
1.8080966e-08
4.4320453e-06
2.2275026e-08
5.0576599e-06
2.7069024e-08
5.7142971e-06
3.2538186e-08
6.4032377e-06
3.8766529e-08
7.125784e-06
4.5847759e-08
7.8832522e-06
5.3886206e-08
8.6769715e-06
6.2997774e-08
9.5082778e-06
7.3310858e-08
1.0378504e-05
8.4967153e-08
1.1288981e-05
9.8122292e-08
1.2241024e-05
1.1294614e-07
1.3235934e-05
1.2962259e-07
1.4274992e-05
1.4834868e-07
1.5359453e-05
1.693326e-07
1.6490556e-05
1.9279056e-07
1.7669526e-05
2.1894195e-07
1.8897593e-05
2.4800289e-07
2.0176011e-05
2.8017802e-07
2.1506097e-05
3.1565114e-07
2.2889273e-05
3.545756e-07
2.4327115e-05
3.9706598e-07
2.5821418e-05
4.4319305e-07
2.7374256e-05
4.9298371e-07
2.8988032e-05
5.4642745e-07
3.0665523e-05
6.0348896e-07
3.2409907e-05
6.6412555e-07
3.4224767e-05
7.2830635e-07
3.6114093e-05
7.9603032e-07
3.8082245e-05
8.673402e-07
4.0133938e-05
9.4233109e-07
4.2274203e-05
1.0211537e-06
4.4508361e-05
1.1040132e-06
4.6842003e-05
1.1911654e-06
4.9280968e-05
1.2829114e-06
5.1831339e-05
1.3795928e-06
5.4499438e-05
1.4815861e-06
5.729183e-05
1.5893e-06
6.0215325e-05
1.7031726e-06
6.3276996e-05
1.8236697e-06
6.6484187e-05
1.9512843e-06
6.9844529e-05
2.0865375e-06
7.3365959e-05
2.2299784e-06
7.7056736e-05
2.382186e-06
8.092546e-05
2.543771e-06
8.498109e-05
2.7153773e-06
8.923297e-05
2.8976848e-06
9.3690844e-05
3.0914115e-06
9.836488e-05
3.2973165e-06
0.00010326569
3.5162025e-06
0.00010840437
3.7489191e-06
0.00011379249
3.9963658e-06
0.00011944214
4.2594958e-06
0.00012536597
4.5393187e-06
0.00013157717
4.8369053e-06
0.00013808957
5.1533908e-06
0.00014491757
5.4899793e-06
0.00015207627
5.8479481e-06
0.00015958143
6.2286526e-06
0.00016744951
6.633531e-06
0.00017569775
7.0641095e-06
0.00018434415
7.5220081e-06
0.00019340752
8.0089461e-06
0.00020290752
8.5267487e-06
0.00021286472
9.0773531e-06
0.00022330058
9.6628159e-06
0.00023423755
1.028532e-05
0.00024569909
1.0947183e-05
0.00025770968
1.1650865e-05
0.00027029493
1.2398977e-05
0.00028348157
1.3194292e-05
0.00029729753
1.4039752e-05
0.00031177197
1.493848e-05
0.00032693535
1.5893794e-05
0.00034281946
1.6909212e-05
0.00035945752
1.798847e-05
0.00037688416
1.9135534e-05
0.00039513556
2.0354613e-05
0.00041424948
2.1650173e-05
0.00043426529
2.3026956e-05
0.0004552241
2.4489995e-05
0.00047716878
2.6044629e-05
0.00050014402
2.7696527e-05
0.00052419647
2.9451703e-05
0.00054937474
3.131654e-05
0.00057572952
3.3297813e-05
0.00060331363
3.5402707e-05
0.00063218213
3.7638853e-05
0.0006623924
4.0014343e-05
0.00069400418
4.2537764e-05
0.00072707973
4.5218229e-05
0.00076168387
4.8065406e-05
0.00079788409
5.1089554e-05
0.00083575064
5.4301557e-05
0.00087535663
5.771296e-05
0.00091677813
6.1336017e-05
0.00096009426
6.5183721e-05
0.0010053873
6.9269864e-05
0.0010527429
7.3609071e-05
0.0011022498
7.821686e-05
0.0011540006
8.3109693e-05
0.0012080912
8.8305029e-05
0.0012646213
9.3821395e-05
0.0013236944
9.9678435e-05
0.001385418
0.00010589699
0.0014499035
0.00011249918
0.0015172665
0.00011950844
0.0015876269
0.00012694964
0.0016611088
0.00013484917
0.001737841
0.00014323501
0.0018179567
0.00015213683
0.0019015937
0.00016158611
0.0019888948
0.00017161624
0.0020800075
0.00018226261
0.0021750842
0.00019356279
0.0022742825
0.00020555659
0.0023777648
0.00021828625
0.0024856988
0.00023179656
0.0025982575
0.00024613503
0.002715619
0.00026135202
0.0028379665
0.00027750096
0.0029654888
0.00029463851
0.0030983795
0.00031282472
0.0032368379
0.00033212332
0.0033810679
0.00035260186
0.0035312788
0.00037433196
0.0036876847
0.00039738956
0.0038505045
0.00042185523
0.0040199617
0.00044781434
0.0041962842
0.00047535741
0.0043797038
0.00050458044
0.0045704564
0.0005355852
0.0047687811
0.00056847954
0.0049749199
0.00060337784
0.0051891175
0.00064040131
0.0054116202
0.00067967845
0.005642676
0.00072134543
0.0058825331
0.00076554658
0.0061314394
0.00081243485
0.0063896419
0.0008621723
0.0066573852
0.00091493064
0.0069349105
0.00097089179
0.0072224545
0.0010302484
0.007520248
0.0010932047
0.007828514
0.0011599767
0.0081474667
0.0012307932
0.0084773088
0.0013058966
0.0088182305
0.0013855433
0.0091704062
0.0014700046
0.0095339931
0.0015595677
0.009909128
0.0016545361
0.010295925
0.001755231
0.010694472
0.0018619918
0.011104828
0.0019751772
0.011527018
0.002095166
0.011961034
0.0022223584
0.012406825
0.0023571767
0.012864296
0.0025000664
0.013333305
0.0026514973
0.013813654
0.0028119646
0.014305091
0.0029819897
0.014807299
0.0031621217
0.015319892
0.0033529381
0.015842412
0.0035550457
0.016374322
0.003769082
0.016915003
0.0039957159
0.017463743
0.0042356487
0.018019739
0.0044896145
0.018582087
0.0047583816
0.019149776
0.0050427524
0.019721691
0.0053435645
0.020296599
0.0056616898
0.020873155
0.0059980363
0.021449891
0.0063535462
0.022025222
0.0067291962
0.022597442
0.0071259969
0.023164727
0.0075449913
0.023725135
0.0079872531
0.024276616
0.0084538851
0.024817018
0.0089460168
0.025344095
0.0094648004
0.025855523
0.010011409
0.026348919
0.01058703
0.026821857
0.011192863
0.027271896
0.011830113
0.027696608
0.012499985
0.028093612
0.013203675
0.02846061
0.01394237
0.028795433
0.014717233
0.029096078
0.0155294
0.029360763
0.016379977
0.029587972
0.017270028
0.029776501
0.018200575
0.0299255
0.019172597
0.030034506
0.020187032
0.030103459
0.021244784
0.030132709
0.022346725
0.030123008
0.023493707
0.030075413
0.024686623
0.029991172
0.025926437
0.029871608
0.027214153
0.02971806
0.028550755
0.029531942
0.029937072
0.02931497
0.031373594
0.02906943
0.032860419
0.028798192
0.034397482
0.028504388
0.035984872
0.028191054
0.037622862
0.027860924
0.039311717
0.027516264
0.04105165
0.027158576
0.042842915
0.026788378
0.044685725
0.026405143
0.046580054
0.026007521
0.048525343
0.025593799
0.050520237
0.025162365
0.05256256
0.024711896
0.054649562
0.024241385
0.05677808
0.023750146
0.05894452
0.02323784
0.061144838
0.02270445
0.063374571
0.022150101
0.06562899
0.021574849
0.067903111
0.020978641
0.070191544
0.020361344
0.07248841
0.019722797
0.07478734
0.019062877
0.077081467
0.018381564
0.079363455
0.017678951
0.081625578
0.016955232
0.083859778
0.016210683
0.086057713
0.015445648
0.088210802
0.014660539
0.09031026
0.01385584
0.092347162
0.013032118
0.094312498
0.01219002
0.096197261
0.011330279
0.09799252
0.010453704
0.099689503
0.0095611788
0.10127968
0.0086536626
0.10275486
0.0077321826
0.10410724
0.0067978325
0.10532954
0.0058517659
0.10641503
0.0048951916
0.10735766
0.0039293666
0.10815208
0.0029555897
0.10879373
0.0019751935
0.10927891
0.00098953767
0.10960478
-1.2095317e-10
0.10976944
-0.00098953792
0.10976944
-0.0019751938
0.10960478
-0.0029555899
0.10927891
-0.0039293669
0.10879373
-0.0048951919
0.10815208
-0.0058517661
0.10735766
-0.0067978327
0.10641503
-0.0077321829
0.10532954
-0.0086536628
0.10410724
-0.0095611791
0.10275486
-0.010453704
0.10127968
-0.01133028
0.099689502
-0.012190021
0.09799252
-0.013032118
0.096197261
-0.013855841
0.094312499
-0.014660539
0.092347161
-0.015445649
0.090310261
-0.016210683
0.088210801
-0.016955232
0.086057714
-0.017678951
0.083859778
-0.018381564
0.081625578
-0.019062877
0.079363455
-0.019722797
0.077081467
-0.020361345
0.074787341
-0.020978641
0.07248841
-0.02157485
0.070191544
-0.022150101
0.067903111
-0.022704451
0.06562899
-0.02323784
0.063374571
-0.023750146
0.061144837
-0.024241386
0.05894452
-0.024711896
0.056778079
-0.025162364
0.054649562
-0.025593799
0.05256256
-0.02600752
0.050520237
-0.026405143
0.048525344
-0.026788377
0.046580053
-0.027158576
0.044685725
-0.027516264
0.042842916
-0.027860924
0.04105165
-0.028191054
0.039311717
-0.028504388
0.037622862
-0.028798191
0.035984872
-0.02906943
0.034397481
-0.02931497
0.03286042
-0.029531942
0.031373594
-0.02971806
0.029937072
-0.029871608
0.028550755
-0.029991172
0.027214153
-0.030075413
0.025926438
-0.030123007
0.024686623
-0.030132709
0.023493706
-0.030103458
0.022346725
-0.030034506
0.021244783
-0.0299255
0.020187032
-0.029776501
0.019172597
-0.029587972
0.018200574
-0.029360763
0.017270028
-0.029096077
0.016379977
-0.028795432
0.015529401
-0.02846061
0.014717232
-0.028093612
0.01394237
-0.027696608
0.013203675
-0.027271896
0.012499985
-0.026821857
0.011830113
-0.026348919
0.011192864
-0.025855523
0.01058703
-0.025344095
0.010011409
-0.024817018
0.0094648001
-0.024276616
0.0089460168
-0.023725135
0.008453885
-0.023164727
0.0079872534
-0.022597442
0.0075449908
-0.022025222
0.0071259973
-0.021449891
0.006729196
-0.020873155
0.0063535462
-0.020296599
0.0059980367
-0.019721691
0.0056616899
-0.019149776
0.0053435646
-0.018582086
0.0050427518
-0.018019739
0.0047583822
-0.017463743
0.0044896144
-0.016915002
0.0042356483
-0.016374322
0.0039957163
-0.015842411
0.0037690815
-0.015319892
0.0035550456
-0.014807299
0.0033529384
-0.014305091
0.0031621215
-0.013813654
0.0029819901
-0.013333304
0.0028119645
-0.012864296
0.0026514971
-0.012406825
0.0025000665
-0.011961034
0.0023571766
-0.011527018
0.0022223586
-0.011104828
0.002095166
-0.010694472
0.0019751771
-0.010295925
0.0018619922
-0.0099091279
0.001755231
-0.0095339931
0.0016545356
-0.0091704061
0.0015595682
-0.0088182304
0.0014700044
-0.0084773088
0.0013855432
-0.0081474666
0.0013058969
-0.007828514
0.001230793
-0.007520248
0.0011599764
-0.0072224545
0.0010932049
-0.0069349104
0.0010302487
-0.0066573852
0.00097089156
-0.006389642
0.00091493041
-0.0061314394
0.00086217261
-0.0058825331
0.00081243454
-0.005642676
0.00076554686
-0.0054116203
0.00072134512
-0.0051891174
0.00067967872
-0.0049749198
0.00064040156
-0.0047687811
0.00060337735
-0.0045704563
0.00056847999
-0.0043797038
0.00053558505
-0.0041962842
0.00050458037
-0.0040199617
0.00047535751
-0.0038505045
0.00044781409
-0.0036876847
0.00042185535
-0.0035312789
0.00039738937
-0.0033810679
0.0003743322
-0.0032368378
0.00035260195
-0.0030983795
0.00033212329
-0.0029654888
0.00031282451
-0.0028379666
0.00029463854
-0.0027156189
0.00027750116
-0.0025982574
0.00026135211
-0.0024856988
0.00024613494
-0.0023777648
0.00023179642
-0.0022742824
0.00021828643
-0.0021750843
0.00020555631
-0.0020800074
0.00019356312
-0.0019888948
0.00018226255
-0.0019015936
0.00017161641
-0.0018179568
0.00016158561
-0.001737841
0.00015213703
-0.0016611089
0.00014323501
-0.0015876269
0.00013484923
-0.0015172667
0.00012694938
-0.0014499034
0.00011950879
-0.0013854179
0.00011249926
-0.0013236945
0.00010589663
-0.0012646212
9.9678706e-05
-0.0012080912
9.3821205e-05
-0.0011540005
8.8305265e-05
-0.0011022499
8.3109407e-05
-0.0010527429
7.8216976e-05
-0.0010053873
7.3609186e-05
-0.00096009442
6.9269548e-05
-0.00091677823
6.518381e-05
-0.0008753567
6.1336068e-05
-0.00083575061
5.7713109e-05
-0.0007978841
5.4301494e-05
-0.00076168395
5.1089453e-05
-0.00072707979
4.8065437e-05
-0.00069400432
4.5218126e-05
-0.00066239251
4.2537796e-05
-0.00063218217
4.0014455e-05
-0.00060331373
3.7638765e-05
-0.00057572945
3.5402922e-05
-0.00054937458
3.329793e-05
-0.0005241965
3.1316312e-05
-0.00050014411
2.9451619e-05
-0.00047716877
2.7696651e-05
-0.00045522396
2.6044791e-05
-0.00043426515
2.4489992e-05
-0.0004142495
2.3026757e-05
-0.00039513563
2.1650126e-05
-0.00037688405
2.0354814e-05
-0.00035945768
1.9135232e-05
-0.0003428193
1.7988822e-05
-0.00032693544
1.6908939e-05
-0.00031177185
1.5894012e-05
-0.00029729747
1.4938418e-05
-0.00028348176
1.4039495e-05
-0.00027029479
1.3194626e-05
-0.00025770965
1.2398864e-05
-0.00024569899
1.1650935e-05
-0.00023423741
1.0947224e-05
-0.00022330038
1.0285371e-05
-0.00021286466
9.6626813e-06
-0.00020290755
9.0772823e-06
-0.00019340773
8.5265818e-06
-0.0001843441
8.0091743e-06
-0.00017569792
7.5218201e-06
-0.00016744944
7.0643175e-06
-0.00015958136
6.6335228e-06
-0.00015207632
6.2285589e-06
-0.00014491776
5.8478381e-06
-0.00013808953
5.4901648e-06
-0.00013157724
5.1533095e-06
-0.00012536609
4.8368563e-06
-0.00011944223
4.5393432e-06
-0.00011379232
4.2596898e-06
-0.00010840448
3.9961602e-06
-0.00010326557
3.7490897e-06
-9.8364886e-05
3.5161116e-06
-9.3690939e-05
3.2972536e-06
-8.923288e-05
3.0915405e-06
-8.4980978e-05
2.8976984e-06
-8.0925231e-05
2.7154532e-06
-7.7056806e-05
2.5435743e-06
-7.3366129e-05
2.382123e-06
-6.9844336e-05
2.2302076e-06
-6.6484289e-05
2.0863532e-06
-6.3277146e-05
1.9512569e-06
-6.0215313e-05
1.8237671e-06
-5.7291988e-05
1.7030746e-06
-5.4499656e-05
1.5892686e-06
-5.1831097e-05
1.4818411e-06
-4.9280961e-05
1.3794636e-06
-4.6842178e-05
1.2828169e-06
-4.4508543e-05
1.1911649e-06
-4.2274233e-05
1.1040899e-06
-4.0133845e-05
1.021212e-06
-3.8082444e-05
9.4219816e-07
-3.6113939e-05
8.6749577e-07
-3.4225005e-05
7.9586599e-07
-3.2410124e-05
7.2831878e-07
-3.0665532e-05
6.6420754e-07
-2.8988174e-05
6.0344239e-07
-2.7374554e-05
5.463793e-07
-2.5821278e-05
4.9312432e-07
-2.4326892e-05
4.4321369e-07
-2.2889448e-05
3.969556e-07
-2.1506396e-05
3.5454851e-07
-2.0175774e-05
3.1577877e-07
-1.8897515e-05
2.8014038e-07
-1.7669505e-05
2.479905e-07
-1.6490799e-05
2.1889447e-07
-1.5359608e-05
1.9280857e-07
-1.4275317e-05
1.6930926e-07
-1.323574e-05
1.4842364e-07
-1.2241301e-05
1.2956153e-07
-1.1288713e-05
1.1301092e-07
-1.0378777e-05
9.8064027e-08
-9.5085471e-06
8.49701e-08
-8.6770741e-06
7.3327264e-08
-7.8832782e-06
6.3004338e-08
-7.1259548e-06
5.3876659e-08
-6.4030262e-06
4.5871864e-08
-5.7145658e-06
3.8739677e-08
-5.0575243e-06
3.2558641e-08
-4.4317971e-06
2.7072722e-08
-3.8364529e-06
2.2256148e-08
-3.268941e-06
1.808812e-08
-2.7289607e-06
1.4419885e-08
-2.2153871e-06
1.1226286e-08
-1.7262542e-06
8.4672329e-09
-1.2611189e-06
6.0643609e-09
-8.1950545e-07
3.9865228e-09
-3.9931529e-07
2.2098303e-09
6.8476876e-10
7.956711e-11
6.0521102e-10
3.3602781e-10
1.9528741e-09
7.9961113e-10
3.5269031e-09
1.5037671e-09
5.3573107e-09
2.4863545e-09
7.4777801e-09
3.7910743e-09
9.9260958e-09
5.4658455e-09
1.2744624e-08
7.5658454e-09
1.5980842e-08
1.0152947e-08
1.968793e-08
1.3296655e-08
2.3925413e-08
1.7074688e-08
2.8759876e-08
2.1575393e-08
3.426573e-08
2.6898088e-08
4.0526042e-08
3.3151099e-08
4.7633421e-08
4.0457816e-08
5.5690925e-08
4.8956121e-08
6.4812996e-08
5.8797198e-08
7.5126339e-08
7.0148626e-08
8.6770731e-08
8.3194588e-08
9.989962e-08
9.8137336e-08
1.1468042e-07
1.1519166e-07
1.3129434e-07
1.3458931e-07
1.4993544e-07
1.5657121e-07
1.7080886e-07
1.8138592e-07
1.9412762e-07
2.0928016e-07
2.2010807e-07
2.4049488e-07
2.4896351e-07
2.7524935e-07
2.808963e-07
3.1373662e-07
3.1608861e-07
3.5611018e-07
3.5469294e-07
4.0247979e-07
3.968239e-07
4.5290991e-07
4.4255288e-07
5.0742852e-07
4.9190799e-07
5.6603678e-07
5.4488017e-07
6.2872673e-07
6.0143577e-07
6.9549892e-07
6.6153386e-07
7.6638383e-07
7.251456e-07
8.4145194e-07
7.9227207e-07
9.2082495e-07
8.6295812e-07
1.0046778e-06
9.3730073e-07
1.0932386e-06
1.0154519e-06
1.1867864e-06
1.0976172e-06
1.2856458e-06
1.184052e-06
1.3901817e-06
1.2750562e-06
1.5007985e-06
1.3709689e-06
1.6179347e-06
1.4721641e-06
1.7420604e-06
1.5790469e-06
1.8736783e-06
1.6920515e-06
2.013323e-06
1.8116398e-06
2.1615598e-06
1.9383006e-06
2.3189883e-06
2.0725503e-06
2.486241e-06
2.2149335e-06
2.6639875e-06
2.3660246e-06
2.8529353e-06
2.5264294e-06
3.0538333e-06
2.6967867e-06
3.2674733e-06
2.8777714e-06
3.4946938e-06
3.070096e-06
3.7363824e-06
3.274514e-06
3.9934791e-06
3.4918225e-06
4.2669795e-06
3.7228649e-06
4.5579408e-06
3.9685344e-06
4.8674824e-06
4.2297772e-06
5.1967918e-06
4.5075963e-06
5.5471275e-06
4.8030548e-06
5.9198266e-06
5.1172801e-06
6.3163068e-06
5.451468e-06
6.7380721e-06
5.8068872e-06
7.1867195e-06
6.1848836e-06
7.6639433e-06
6.5868857e-06
8.1715424e-06
7.0144094e-06
8.7114248e-06
7.4690636e-06
9.2856174e-06
7.9525561e-06
9.8962709e-06
8.4666996e-06
1.0545668e-05
9.0134184e-06
1.1236233e-05
9.5947552e-06
1.1970538e-05
1.0212878e-05
1.2751313e-05
1.087009e-05
1.3581457e-05
1.1568833e-05
1.4464046e-05
1.2311702e-05
1.5402346e-05
1.3101451e-05
1.6399823e-05
1.3941003e-05
1.7460157e-05
1.4833461e-05
1.8587251e-05
1.5782118e-05
1.978525e-05
1.6790471e-05
2.1058553e-05
1.7862232e-05
2.2411827e-05
1.9001339e-05
2.3850026e-05
2.0211974e-05
2.5378408e-05
2.1498574e-05
2.7002551e-05
2.2865851e-05
2.8728378e-05
2.4318802e-05
3.0562171e-05
2.5862735e-05
3.2510596e-05
2.7503278e-05
3.4580729e-05
2.9246407e-05
3.6780076e-05
3.1098465e-05
3.9116604e-05
3.306618e-05
4.1598763e-05
3.5156694e-05
4.4235523e-05
3.7377583e-05
4.7036399e-05
3.9736888e-05
5.0011485e-05
4.2243142e-05
5.3171496e-05
4.4905395e-05
5.6527798e-05
4.7733253e-05
6.0092448e-05
5.0736906e-05
6.3878244e-05
5.3927165e-05
6.7898759e-05
5.7315501e-05
7.2168399e-05
6.0914081e-05
7.6702446e-05
6.4735817e-05
8.1517118e-05
6.87944e-05
8.662962e-05
7.3104359e-05
9.2058209e-05
7.7681103e-05
9.782226e-05
8.2540979e-05
0.00010394233
8.7701326e-05
0.00011044023
9.3180533e-05
0.00011733912
9.8998106e-05
0.00012466356
0.00010517474
0.00013243964
0.00011173236
0.00014069502
0.00011869426
0.00014945909
0.0001260851
0.00015876303
0.00013393107
0.00016863994
0.00014225991
0.00017912499
0.00015110107
0.00019025548
0.00016048575
0.00020207104
0.00017044705
0.00021461375
0.00018102008
0.00022792831
0.00019224203
0.00024206219
0.00020415237
0.00025706581
0.00021679294
0.00027299275
0.00023020809
0.00028989992
0.00024444485
0.0003078478
0.00025955308
0.00032690065
0.00027558565
0.00034712678
0.0002925986
0.00036859878
0.00031065132
0.0003913938
0.00032980683
0.00041559388
0.00035013188
0.00044128621
0.00037169724
0.00046856348
0.00039457796
0.00049752424
0.00041885358
0.00052827325
0.00044460839
0.00056092191
0.00047193178
0.00059558863
0.00050091848
0.00063239926
0.00053166891
0.00067148759
0.00056428951
0.00071299582
0.00059889309
0.00075707501
0.00063559925
0.00080388569
0.00067453475
0.00085359833
0.00071583394
0.00090639396
0.00075963923
0.0009624647
0.00080610155
0.0010220144
0.00085538089
0.0010852594
0.00090764682
0.0011524288
0.00096307905
0.0012237654
0.001021868
0.0012995264
0.0010842157
0.0013799837
0.0011503359
0.0014654249
0.0012204554
0.0015561536
0.0012948146
0.0016524904
0.0013736678
0.001754773
0.0014572851
0.001863357
0.0015459521
0.0019786162
0.0016399718
0.0021009432
0.0017396648
0.0022307494
0.001845371
0.0023684652
0.0019574502
0.0025145401
0.0020762835
0.0026694427
0.0022022741
0.0028336598
0.0023358493
0.0030076964
0.0024774607
0.0031920744
0.0026275865
0.0033873316
0.0027867325
0.0035940203
0.0029554331
0.0038127048
0.0031342536
0.0040439595
0.003323791
0.0042883655
0.0035246759
0.0045465074
0.003737574
0.0048189686
0.0039631874
0.0051063267
0.0042022565
0.005409147
0.0044555613
0.0057279764
0.0047239231
0.0060633349
0.005008206
0.006415707
0.0053093177
0.0067855313
0.005628212
0.0071731891
0.0059658884
0.0075789912
0.0063233942
0.0080031634
0.0067018247
0.0084458307
0.007102324
0.0089069993
0.0075260845
0.0093865372
0.0079743472
0.0098841534
0.0084484005
0.010399375
0.0089495789
0.010931523
0.009479261
0.011479686
0.010038866
0.012042697
0.010629853
0.012619101
0.011253709
0.013207134
0.011911952
0.013804691
0.012606118
0.014409307
0.013337754
0.015018133
0.014108407
0.015627919
0.014919614
0.016235008
0.015772887
0.016835337
0.016669699
0.017424447
0.017611465
0.017997516
0.018599527
0.018549415
0.019635132
0.019074786
0.020719413
0.019568143
0.021853368
0.020024009
0.023037841
0.020437128
0.024273504
0.020802719
0.025560846
0.021116708
0.026900165
0.021375909
0.028291554
0.021578069
0.029734911
0.021721726
0.031229938
0.021805998
0.032776147
0.021830603
0.034372877
0.021796168
0.036019306
0.021704547
0.037714484
0.021558884
0.03945738
0.021363568
0.041246965
0.021124134
0.043082349
0.020846995
0.044962864
0.020538894
0.046888155
0.020206036
0.048858201
0.019853296
0.050872977
0.019484184
0.052931672
0.019101124
0.055032622
0.018705166
0.057174037
0.018295657
0.059354029
0.017870914
0.061569581
0.017429936
0.063815549
0.01697295
0.066085976
0.016500284
0.068375777
0.016011998
0.07067983
0.015508279
0.072992129
0.014989603
0.075306015
0.014456535
0.077614535
0.013909488
0.079910502
0.013348714
0.082186351
0.012774387
0.084434105
0.012186701
0.086645398
0.011585958
0.088811545
0.010972567
0.09092365
0.010347024
0.092972705
0.0097098806
0.094949641
0.009061734
0.096845408
0.0084032299
0.098651023
0.007735071
0.10035766
0.0070580183
0.10195673
0.006372889
0.10343999
0.0056805508
0.10479958
0.0049819182
0.10602817
0.0042779488
0.107119
0.0035696397
0.10806597
0.0028580224
0.10886369
0.0021441576
0.1095076
0.0014291295
0.10999393
0.00071404013
0.11031987
2.795502e-09
0.11048348
-0.00071403454
0.11048348
-0.001429124
0.11031987
-0.0021441521
0.10999393
-0.0028580169
0.1095076
-0.0035696342
0.10886369
-0.0042779432
0.10806597
-0.0049819125
0.107119
-0.0056805452
0.10602817
-0.0063728834
0.10479958
-0.0070580128
0.10343999
-0.0077350654
0.10195673
-0.0084032244
0.10035766
-0.0090617284
0.098651023
-0.0097098751
0.096845408
-0.010347018
0.094949642
-0.010972561
0.092972704
-0.011585952
0.090923651
-0.012186696
0.088811544
-0.012774381
0.086645399
-0.013348708
0.084434105
-0.013909482
0.082186351
-0.01445653
0.079910502
-0.014989598
0.077614535
-0.015508273
0.075306016
-0.016011993
0.072992129
-0.016500279
0.07067983
-0.016972945
0.068375777
-0.017429931
0.066085976
-0.017870909
0.063815549
-0.018295652
0.06156958
-0.018705161
0.059354029
-0.019101119
0.057174037
-0.01948418
0.055032623
-0.019853292
0.052931673
-0.020206033
0.050872977
-0.020538891
0.048858202
-0.020846992
0.046888154
-0.021124131
0.044962864
-0.021363566
0.04308235
-0.021558881
0.041246966
-0.021704544
0.03945738
-0.021796166
0.037714483
-0.0218306
0.036019307
-0.021805996
0.034372877
-0.021721724
0.032776148
-0.021578067
0.031229937
-0.021375906
0.029734911
-0.021116706
0.028291554
-0.020802717
0.026900164
-0.020437126
0.025560847
-0.020024007
0.024273504
-0.019568141
0.02303784
-0.019074784
0.021853368
-0.018549414
0.020719413
-0.017997515
0.019635133
-0.017424445
0.018599528
-0.016835336
0.017611465
-0.016235007
0.0166697
-0.015627918
0.015772887
-0.015018132
0.014919615
-0.014409306
0.014108407
-0.01380469
0.013337754
-0.013207133
0.012606118
-0.012619101
0.011911952
-0.012042696
0.011253709
-0.011479685
0.010629853
-0.010931522
0.010038866
-0.010399374
0.0094792612
-0.0098841528
0.0089495786
-0.0093865366
0.0084484007
-0.0089069987
0.0079743471
-0.0084458301
0.0075260849
-0.0080031629
0.0071023236
-0.0075789907
0.0067018251
-0.0071731887
0.0063233939
-0.0067855309
0.0059658884
-0.0064157065
0.0056282124
-0.0060633344
0.0053093178
-0.005727976
0.0050082061
-0.0054091467
0.0047239225
-0.0051063263
0.0044555618
-0.0048189683
0.0042022564
-0.0045465071
0.0039631871
-0.0042883652
0.0037375744
-0.0040439592
0.0035246755
-0.0038127046
0.003323791
-0.0035940201
0.0031342539
-0.0033873314
0.0029554329
-0.0031920741
0.0027867328
-0.0030076961
0.0026275865
-0.0028336596
0.0024774605
-0.0026694425
0.0023358494
-0.0025145399
0.002202274
-0.002368465
0.0020762836
-0.0022307492
0.0019574503
-0.0021009431
0.001845371
-0.0019786161
0.0017396652
-0.0018633568
0.0016399718
-0.0017547729
0.0015459516
-0.0016524903
0.0014572856
-0.0015561535
0.0013736676
-0.0014654248
0.0012948145
-0.0013799836
0.0012204558
-0.0012995263
0.0011503357
-0.0012237654
0.0010842155
-0.0011524287
0.0010218682
-0.0010852593
0.0009630793
-0.0010220144
0.00090764662
-0.00096246464
0.00085538069
-0.00090639387
0.00080610185
-0.00085359828
0.00075963894
-0.00080388562
0.0007158342
-0.00075707497
0.00067453447
-0.00071299575
0.00063559951
-0.00067148752
0.00059889332
-0.00063239922
0.00056428905
-0.00059558856
0.00053166933
-0.00056092186
0.00050091836
-0.00052827321
0.00047193171
-0.00049752419
0.00044460848
-0.00046856345
0.00041885335
-0.00044128617
0.00039457807
-0.00041559386
0.00037169706
-0.00039139377
0.00035013211
-0.00036859874
0.00032980692
-0.00034712674
0.0003106513
-0.00032690063
0.0002925984
-0.00030784778
0.00027558568
-0.00028989989
0.00025955327
-0.00027299271
0.00024444494
-0.00025706578
0.00023020801
-0.00024206217
0.0002167928
-0.00022792828
0.00020415254
-0.00021461374
0.00019224177
-0.00020207101
0.00018102039
-0.00019025545
0.00017044699
-0.00017912495
0.00016048591
-0.00016863994
0.0001511006
-0.00015876301
0.0001422601
-0.00014945907
0.00013393107
-0.000140695
0.00012608516
-0.00013243964
0.00011869401
-0.00012466354
0.00011173269
-0.0001173391
0.00010517481
-0.00011044023
9.8997763e-05
-0.00010394231
9.3180786e-05
-9.7822257e-05
8.7701149e-05
-9.2058192e-05
8.25412e-05
-8.6629622e-05
7.7680836e-05
-8.1517113e-05
7.3104468e-05
-7.6702434e-05
6.8794507e-05
-7.2168408e-05
6.4735522e-05
-6.7898763e-05
6.0914164e-05
-6.3878244e-05
5.731555e-05
-6.0092439e-05
5.3927304e-05
-5.6527793e-05
5.0736847e-05
-5.3171499e-05
4.7733158e-05
-5.0011486e-05
4.4905424e-05
-4.7036407e-05
4.2243046e-05
-4.4235529e-05
3.9736919e-05
-4.1598763e-05
3.7377688e-05
-3.9116609e-05
3.5156612e-05
-3.6780068e-05
3.3066381e-05
-3.4580713e-05
3.1098575e-05
-3.2510595e-05
2.9246194e-05
-3.0562176e-05
2.75032e-05
-2.8728376e-05
2.586285e-05
-2.7002538e-05
2.4318953e-05
-2.5378395e-05
2.2865848e-05
-2.3850026e-05
2.1498389e-05
-2.241183e-05
2.021193e-05
-2.1058543e-05
1.9001527e-05
-1.9785261e-05
1.786195e-05
-1.8587239e-05
1.67908e-05
-1.7460163e-05
1.5781863e-05
-1.6399815e-05
1.4833664e-05
-1.5402343e-05
1.3940945e-05
-1.446406e-05
1.3101212e-05
-1.3581448e-05
1.2312014e-05
-1.2751312e-05
1.1568728e-05
-1.1970532e-05
1.0870155e-05
-1.1236225e-05
1.0212916e-05
-1.0545657e-05
9.5948029e-06
-9.8962684e-06
9.013293e-06
-9.2856198e-06
8.4666336e-06
-8.7114384e-06
7.9524005e-06
-8.1715408e-06
7.4692765e-06
-7.6639546e-06
7.0142342e-06
-7.1867173e-06
6.5870797e-06
-6.7380705e-06
6.184876e-06
-6.3163114e-06
5.8067999e-06
-5.9198388e-06
5.4513656e-06
-5.5471272e-06
5.1174531e-06
-5.1967969e-06
4.8029791e-06
-4.8674916e-06
4.5075507e-06
-4.5579487e-06
4.2298001e-06
-4.2669739e-06
3.9687151e-06
-3.9934868e-06
3.7226733e-06
-3.7363788e-06
3.4919814e-06
-3.4946965e-06
3.2744294e-06
-3.2674805e-06
3.0700375e-06
-3.0538316e-06
2.8778914e-06
-2.8529327e-06
2.6967994e-06
-2.6639791e-06
2.5265e-06
-2.4862468e-06
2.3658417e-06
-2.3189988e-06
2.2148749e-06
-2.1615544e-06
2.0727633e-06
-2.0133306e-06
1.9381294e-06
-1.873688e-06
1.8116144e-06
-1.7420628e-06
1.692142e-06
-1.6179442e-06
1.578956e-06
-1.5008109e-06
1.472135e-06
-1.390175e-06
1.371205e-06
-1.2856481e-06
1.2749368e-06
-1.1867958e-06
1.1839648e-06
-1.0932481e-06
1.0976169e-06
-1.0046803e-06
1.0155226e-06
-9.2082248e-07
9.3735424e-07
-8.4146079e-07
8.6283645e-07
-7.6637906e-07
7.924142e-07
-6.9550904e-07
7.2499594e-07
-6.2873571e-07
6.615454e-07
-5.6603859e-07
6.0151014e-07
-5.0743452e-07
5.448382e-07
-4.5292048e-07
4.9186484e-07
-4.0247603e-07
4.4267916e-07
-3.5610393e-07
3.9684227e-07
-3.1374235e-07
3.5459434e-07
-2.752583e-07
3.1606456e-07
-2.4048947e-07
2.8100988e-07
-2.0927906e-07
2.4893003e-07
-1.8138659e-07
2.2009706e-07
-1.5657699e-07
1.9408554e-07
-1.345933e-07
1.7082484e-07
-1.1519837e-07
1.4991479e-07
-9.8135134e-08
1.3136069e-07
-8.3199515e-08
1.1462641e-07
-7.0145605e-08
9.9956923e-08
-5.8800913e-08
8.6719209e-08
-4.8959419e-08
7.5128949e-08
-4.0459893e-08
6.4827503e-08
-3.3152412e-08
5.5696729e-08
-2.6900276e-08
4.7624983e-08
-2.1575258e-08
4.054735e-08
-1.7077562e-08
3.4241995e-08
-1.3296644e-08
2.8777957e-08
-1.0152783e-08
2.3928682e-08
-7.5674961e-09
1.9671244e-08
-5.4664261e-09
1.5987165e-08
-3.7914816e-09
1.2744912e-08
-2.4875577e-09
9.9222165e-09
-1.5040234e-09
7.4836243e-09
-7.9948183e-10
5.3598619e-09
-3.3634625e-10
3.5233925e-09
-7.9544923e-11
1.9530976e-09
6.0521104e-10
1.8355003e-11
5.8693216e-10
7.7303057e-11
1.8938923e-09
1.8398596e-10
3.4203811e-09
3.459787e-10
5.1955044e-09
5.7154038e-10
7.2519274e-09
8.7137284e-10
9.6262935e-09
1.2561799e-09
1.2359689e-08
1.7387185e-09
1.549816e-08
2.3335391e-09
1.9093282e-08
3.0562163e-09
2.320279e-08
3.9247786e-09
2.789127e-08
4.9597544e-09
3.3230908e-08
6.1841382e-09
3.9302303e-08
7.6222263e-09
4.619533e-08
9.3031668e-09
5.4010041e-08
1.1258487e-08
6.2857586e-08
1.3523475e-08
7.2861105e-08
1.6137852e-08
8.4156552e-08
1.9143826e-08
9.6893342e-08
2.2589696e-08
1.1123474e-07
2.652647e-08
1.2735778e-07
3.1009382e-08
1.4545261e-07
3.6097603e-08
1.6572083e-07
4.1853037e-08
1.8837283e-07
4.8336603e-08
2.1362348e-07
5.561448e-08
2.416864e-07
6.3744999e-08
2.7276638e-07
7.2783244e-08
3.0705055e-07
8.277778e-08
3.4469898e-07
9.3765846e-08
3.8583605e-07
1.0577484e-07
4.3054437e-07
1.1882079e-07
4.7886324e-07
1.3290775e-07
5.3079318e-07
1.4803575e-07
5.8630683e-07
1.6420536e-07
6.453651e-07
1.8141458e-07
7.0793614e-07
1.996739e-07
7.7401357e-07
2.1900023e-07
8.4363139e-07
2.3942789e-07
9.1687365e-07
2.61001e-07
9.9387861e-07
2.8377937e-07
1.0748384e-06
3.0783583e-07
1.1599958e-06
3.332529e-07
1.2496389e-06
3.6012534e-07
1.3440964e-06
3.8855673e-07
1.4437326e-06
4.1865951e-07
1.5489438e-06
4.5055533e-07
1.660156e-06
4.8437241e-07
1.7778226e-06
5.2024854e-07
1.9024245e-06
5.583288e-07
2.0344698e-06
5.9876707e-07
2.1744948e-06
6.417273e-07
2.3230648e-06
6.8738064e-07
2.4807761e-06
7.3590951e-07
2.6482579e-06
7.8750694e-07
2.8261743e-06
8.4237584e-07
3.0152267e-06
9.0073339e-07
3.2161565e-06
9.6280787e-07
3.4297481e-06
1.0288414e-06
3.6568312e-06
1.0990911e-06
3.8982847e-06