/*--------------------------------*- C++ -*----------------------------------*\
| =========                 |                                                 |
| \\      /  F ield         | OpenFOAM: The Open Source CFD Toolbox           |
|  \\    /   O peration     | Version:  2112                                  |
|   \\  /    A nd           | Website:  www.openfoam.com                      |
|    \\/     M anipulation  |                                                 |
\*---------------------------------------------------------------------------*/
FoamFile
{
    version     2.0;
    format      ascii;
    arch        "LSB;label=32;scalar=64";
    class       volVectorField;
    location    "4416";
    object      U;
}
// * * * * * * * * * * * * * * * * * * * * * * * * * * * * * * * * * * * * * //

dimensions      [0 1 -1 0 0 0 0];

internalField   nonuniform List<vector> 
81920
(
(0.015052656 0 5.1055155e-08)
(0.04599914 0 1.5606763e-07)
(0.078675364 0 2.664736e-07)
(0.11317794 0 3.8256108e-07)
(0.14960879 0 5.046353e-07)
(0.1880754 0 6.3298166e-07)
(0.22869099 0 7.6788433e-07)
(0.27157467 0 9.0963712e-07)
(0.31685151 0 1.0585434e-06)
(0.36465248 0 1.2149144e-06)
(0.41511424 0 1.379069e-06)
(0.46837861 0 1.551332e-06)
(0.52459173 0 1.7320346e-06)
(0.58390264 0 1.921512e-06)
(0.64646124 0 2.1201033e-06)
(0.71241515 0 2.3281497e-06)
(0.7819054 0 2.5459934e-06)
(0.85506041 0 2.7739751e-06)
(0.93198781 0 3.0124338e-06)
(1.0127638 0 3.2617047e-06)
(1.0974192 0 3.5221179e-06)
(1.185923 0 3.7939981e-06)
(1.2781615 0 4.0776644e-06)
(1.3739168 0 4.3734316e-06)
(1.472844 0 4.6816137e-06)
(1.5744513 0 5.002528e-06)
(1.6780886 0 5.3365034e-06)
(1.7829485 0 5.6838896e-06)
(1.8880873 0 6.0450694e-06)
(1.9924668 0 6.420473e-06)
(2.095018 0 6.8105937e-06)
(2.1947175 0 7.2160012e-06)
(2.2906648 0 7.6373553e-06)
(2.3821472 0 8.0754153e-06)
(2.4686786 0 8.5310438e-06)
(2.5500093 0 9.0052087e-06)
(2.6261081 0 9.4989779e-06)
(2.697125 0 1.0013515e-05)
(2.7633452 0 1.0550069e-05)
(2.8251418 0 1.1109968e-05)
(2.8829353 0 1.1694613e-05)
(2.9371603 0 1.2305471e-05)
(2.9882427 0 1.2944071e-05)
(3.0365839 0 1.3612004e-05)
(3.0825522 0 1.4310923e-05)
(3.1264785 0 1.5042542e-05)
(3.168656 0 1.5808638e-05)
(3.2093411 0 1.661106e-05)
(3.2487562 0 1.7451722e-05)
(3.2870931 0 1.8332619e-05)
(3.3245162 0 1.9255822e-05)
(3.3611657 0 2.0223489e-05)
(3.3971611 0 2.1237868e-05)
(3.4326038 0 2.23013e-05)
(3.46758 0 2.3416228e-05)
(3.5021623 0 2.45852e-05)
(3.5364125 0 2.5810878e-05)
(3.5703825 0 2.7096038e-05)
(3.6041162 0 2.8443581e-05)
(3.6376509 0 2.9856537e-05)
(3.6710177 0 3.1338072e-05)
(3.7042432 0 3.2891495e-05)
(3.7373496 0 3.4520264e-05)
(3.7703557 0 3.6227992e-05)
(3.8032773 0 3.8018457e-05)
(3.8361279 0 3.9895607e-05)
(3.8689185 0 4.1863569e-05)
(3.9016588 0 4.3926657e-05)
(3.9343566 0 4.608938e-05)
(3.9670187 0 4.8356452e-05)
(3.9996508 0 5.0732799e-05)
(4.0322575 0 5.3223568e-05)
(4.0648429 0 5.5834142e-05)
(4.0974104 0 5.8570142e-05)
(4.1299626 0 6.1437443e-05)
(4.162502 0 6.4442185e-05)
(4.1950305 0 6.7590779e-05)
(4.2275497 0 7.0889927e-05)
(4.2600611 0 7.4346624e-05)
(4.2925657 0 7.7968181e-05)
(4.3250645 0 8.1762229e-05)
(4.3575583 0 8.5736738e-05)
(4.3900476 0 8.990003e-05)
(4.4225331 0 9.426079e-05)
(4.4550152 0 9.8828087e-05)
(4.4874943 0 0.00010361138)
(4.5199705 0 0.00010862055)
(4.5524443 0 0.0001138659)
(4.5849157 0 0.00011935818)
(4.617385 0 0.00012510859)
(4.6498524 0 0.00013112884)
(4.6823179 0 0.00013743111)
(4.7147817 0 0.00014402813)
(4.7472438 0 0.00015093313)
(4.7797046 0 0.00015815994)
(4.812164 0 0.00016572294)
(4.8446223 0 0.00017363714)
(4.8770795 0 0.00018191814)
(4.9095359 0 0.00019058223)
(4.9419918 0 0.00019964634)
(4.9744472 0 0.00020912809)
(5.0069026 0 0.00021904586)
(5.0393582 0 0.00022941873)
(5.0718143 0 0.00024026657)
(5.1042715 0 0.00025161006)
(5.13673 0 0.00026347067)
(5.1691906 0 0.00027587075)
(5.2016536 0 0.00028883352)
(5.2341199 0 0.00030238309)
(5.26659 0 0.00031654452)
(5.2990648 0 0.00033134383)
(5.3315451 0 0.00034680802)
(5.364032 0 0.00036296513)
(5.3965265 0 0.00037984421)
(5.4290297 0 0.00039747541)
(5.4615429 0 0.00041588998)
(5.4940675 0 0.00043512031)
(5.526605 0 0.00045519991)
(5.559157 0 0.00047616352)
(5.5917252 0 0.00049804705)
(5.6243114 0 0.00052088765)
(5.6569178 0 0.00054472375)
(5.6895463 0 0.00056959501)
(5.7221992 0 0.00059554242)
(5.754879 0 0.00062260827)
(5.7875882 0 0.00065083616)
(5.8203293 0 0.00068027103)
(5.8531051 0 0.00071095917)
(5.8859186 0 0.00074294821)
(5.9187727 0 0.00077628712)
(5.9516705 0 0.0008110262)
(5.9846152 0 0.00084721707)
(6.01761 0 0.00088491266)
(6.0506581 0 0.00092416716)
(6.083763 0 0.00096503618)
(6.1169279 0 0.0010075762)
(6.1501562 0 0.0010518449)
(6.1834511 0 0.0010979015)
(6.2168158 0 0.0011458056)
(6.2502534 0 0.0011956183)
(6.2837669 0 0.001247401)
(6.317359 0 0.0013012161)
(6.3510323 0 0.0013571265)
(6.3847891 0 0.0014151956)
(6.4186313 0 0.0014754869)
(6.4525607 0 0.0015380638)
(6.4865784 0 0.00160299)
(6.5206853 0 0.0016703282)
(6.5548817 0 0.0017401409)
(6.5891673 0 0.0018124891)
(6.6235412 0 0.0018874329)
(6.6580021 0 0.0019650303)
(6.6925475 0 0.0020453374)
(6.7271745 0 0.0021284077)
(6.7618792 0 0.0022142915)
(6.7966569 0 0.0023030356)
(6.8315017 0 0.0023946826)
(6.8664068 0 0.0024892701)
(6.9013643 0 0.0025868303)
(6.9363649 0 0.0026873893)
(6.9713984 0 0.0027909659)
(7.0064528 0 0.002897571)
(7.0415148 0 0.003007207)
(7.0765696 0 0.0031198661)
(7.1116009 0 0.0032355301)
(7.1465902 0 0.0033541685)
(7.1815178 0 0.0034757382)
(7.2163615 0 0.0036001816)
(7.2510973 0 0.0037274257)
(7.2856992 0 0.0038573807)
(7.3201387 0 0.0039899389)
(7.3543851 0 0.0041249729)
(7.3884052 0 0.0042623346)
(7.4221633 0 0.0044018539)
(7.4556209 0 0.0045433369)
(7.488737 0 0.0046865648)
(7.5214677 0 0.0048312927)
(7.5537661 0 0.0049772483)
(7.5855825 0 0.0051241309)
(7.6168643 0 0.0052716103)
(7.6475557 0 0.0054193261)
(7.6775983 0 0.0055668875)
(7.7069306 0 0.0057138726)
(7.7354884 0 0.005859829)
(7.7632047 0 0.0060042742)
(7.7900104 0 0.0061466965)
(7.8158341 0 0.0062865571)
(7.8406027 0 0.0064232921)
(7.8642419 0 0.0065563157)
(7.8866768 0 0.0066850239)
(7.9078325 0 0.0068087997)
(7.9276352 0 0.0069270187)
(7.9460132 0 0.0070390559)
(7.9628984 0 0.007144294)
(7.9782278 0 0.0072421322)
(7.991945 0 0.0073319967)
(8.0040033 0 0.0074133513)
(8.0143676 0 0.00748571)
(8.0230173 0 0.0075486487)
(8.0299505 0 0.0076018174)
(8.035187 0 0.0076449512)
(8.0387728 0 0.0076778801)
(8.0407836 0 0.0077005401)
(8.0413275 0 0.0077129788)
(8.0405497 0 0.0077152774)
(8.038655 0 0.0077076504)
(8.0358988 0 0.0076904113)
(8.0325726 0 0.0076638612)
(8.0289859 0 0.0076283147)
(8.0254422 0 0.0075841364)
(8.0222097 0 0.0075318081)
(8.0194898 0 0.0074719941)
(8.0173909 0 0.0074055095)
(8.0159241 0 0.0073331719)
(8.0150293 0 0.0072556359)
(8.014616 0 0.0071734629)
(8.0145864 0 0.0070872695)
(8.0148375 0 0.006997542)
(8.0152599 0 0.0069045125)
(8.0157411 0 0.0068081732)
(8.0161764 0 0.0067083109)
(8.016489 0 0.0066045442)
(8.0166535 0 0.0064963914)
(8.0166949 0 0.0063834892)
(8.0166572 0 0.0062655931)
(8.0165812 0 0.0061424719)
(8.0164996 0 0.0060139916)
(8.0164367 0 0.0058801188)
(8.0164028 0 0.0057408803)
(8.016393 0 0.0055962877)
(8.0163959 0 0.0054463279)
(8.0164016 0 0.0052909903)
(8.0164035 0 0.0051302416)
(8.0163997 0 0.0049640353)
(8.0163918 0 0.0047923515)
(8.0163826 0 0.0046152024)
(8.016374 0 0.0044326232)
(8.0163666 0 0.0042446769)
(8.0163602 0 0.0040514438)
(8.016354 0 0.0038530195)
(8.0163479 0 0.0036495187)
(8.0163418 0 0.0034410752)
(8.0163358 0 0.0032278446)
(8.0163301 0 0.0030100035)
(8.0163248 0 0.002787749)
(8.0163197 0 0.002561298)
(8.0163151 0 0.0023308863)
(8.0163108 0 0.0020967678)
(8.0163068 0 0.0018592139)
(8.0163033 0 0.0016185122)
(8.0163002 0 0.0013749651)
(8.0162976 0 0.001128888)
(8.0162954 0 0.00088060735)
(8.0162938 0 0.00063045556)
(8.0162926 0 0.00037879563)
(8.0162919 0 0.00012631816)
(8.0162919 0 -0.00012631822)
(8.0162926 0 -0.00037879569)
(8.0162938 0 -0.00063045562)
(8.0162954 0 -0.00088060742)
(8.0162976 0 -0.0011288881)
(8.0163002 0 -0.0013749652)
(8.0163033 0 -0.0016185123)
(8.0163068 0 -0.001859214)
(8.0163108 0 -0.0020967678)
(8.0163151 0 -0.0023308863)
(8.0163197 0 -0.0025612981)
(8.0163248 0 -0.0027877491)
(8.0163301 0 -0.0030100036)
(8.0163358 0 -0.0032278447)
(8.0163418 0 -0.0034410753)
(8.0163479 0 -0.0036495188)
(8.016354 0 -0.0038530196)
(8.0163602 0 -0.0040514439)
(8.0163666 0 -0.004244677)
(8.016374 0 -0.0044326233)
(8.0163826 0 -0.0046152024)
(8.0163918 0 -0.0047923515)
(8.0163997 0 -0.0049640353)
(8.0164035 0 -0.0051302417)
(8.0164016 0 -0.0052909903)
(8.0163959 0 -0.0054463279)
(8.016393 0 -0.0055962879)
(8.0164028 0 -0.0057408808)
(8.0164367 0 -0.0058801185)
(8.0164996 0 -0.0060139896)
(8.0165812 0 -0.0061424766)
(8.0166572 0 -0.0062656004)
(8.0166949 0 -0.0063834761)
(8.0166535 0 -0.006496386)
(8.016489 0 -0.0066045529)
(8.0161764 0 -0.0067083108)
(8.0157411 0 -0.0068081732)
(8.0152599 0 -0.0069045125)
(8.0148375 0 -0.006997542)
(8.0145864 0 -0.0070872695)
(8.014616 0 -0.0071734628)
(8.0150293 0 -0.0072556358)
(8.0159241 0 -0.0073331719)
(8.0173909 0 -0.0074055094)
(8.0194898 0 -0.007471994)
(8.0222097 0 -0.007531808)
(8.0254422 0 -0.0075841363)
(8.0289859 0 -0.0076283146)
(8.0325726 0 -0.0076638611)
(8.0358988 0 -0.0076904112)
(8.038655 0 -0.0077076503)
(8.0405497 0 -0.0077152773)
(8.0413275 0 -0.0077129787)
(8.0407836 0 -0.0077005401)
(8.0387728 0 -0.0076778801)
(8.035187 0 -0.0076449511)
(8.0299505 0 -0.0076018173)
(8.0230173 0 -0.0075486486)
(8.0143676 0 -0.00748571)
(8.0040033 0 -0.0074133513)
(7.991945 0 -0.0073319966)
(7.9782278 0 -0.0072421322)
(7.9628984 0 -0.0071442939)
(7.9460132 0 -0.0070390558)
(7.9276352 0 -0.0069270186)
(7.9078325 0 -0.0068087997)
(7.8866768 0 -0.0066850239)
(7.8642419 0 -0.0065563156)
(7.8406027 0 -0.0064232921)
(7.8158341 0 -0.0062865571)
(7.7900104 0 -0.0061466964)
(7.7632047 0 -0.0060042741)
(7.7354884 0 -0.005859829)
(7.7069306 0 -0.0057138726)
(7.6775984 0 -0.0055668875)
(7.6475557 0 -0.0054193261)
(7.6168643 0 -0.0052716103)
(7.5855825 0 -0.0051241309)
(7.5537661 0 -0.0049772483)
(7.5214677 0 -0.0048312927)
(7.488737 0 -0.0046865648)
(7.4556209 0 -0.0045433369)
(7.4221633 0 -0.0044018539)
(7.3884052 0 -0.0042623346)
(7.3543851 0 -0.0041249728)
(7.3201387 0 -0.0039899388)
(7.2856992 0 -0.0038573807)
(7.2510973 0 -0.0037274257)
(7.2163615 0 -0.0036001816)
(7.1815178 0 -0.0034757382)
(7.1465902 0 -0.0033541685)
(7.1116009 0 -0.0032355301)
(7.0765696 0 -0.0031198661)
(7.0415148 0 -0.003007207)
(7.0064528 0 -0.002897571)
(6.9713984 0 -0.0027909659)
(6.9363649 0 -0.0026873893)
(6.9013643 0 -0.0025868303)
(6.8664068 0 -0.0024892701)
(6.8315017 0 -0.0023946826)
(6.7966569 0 -0.0023030356)
(6.7618792 0 -0.0022142915)
(6.7271745 0 -0.0021284077)
(6.6925475 0 -0.0020453374)
(6.6580021 0 -0.0019650303)
(6.6235412 0 -0.0018874329)
(6.5891673 0 -0.0018124891)
(6.5548817 0 -0.0017401409)
(6.5206853 0 -0.0016703282)
(6.4865784 0 -0.00160299)
(6.4525607 0 -0.0015380639)
(6.4186313 0 -0.0014754869)
(6.3847891 0 -0.0014151956)
(6.3510323 0 -0.0013571265)
(6.317359 0 -0.0013012161)
(6.2837669 0 -0.001247401)
(6.2502534 0 -0.0011956183)
(6.2168158 0 -0.0011458056)
(6.1834511 0 -0.0010979015)
(6.1501562 0 -0.0010518449)
(6.1169279 0 -0.0010075761)
(6.083763 0 -0.00096503614)
(6.0506582 0 -0.00092416722)
(6.01761 0 -0.00088491268)
(5.9846152 0 -0.00084721706)
(5.9516705 0 -0.00081102618)
(5.9187727 0 -0.00077628712)
(5.8859187 0 -0.00074294823)
(5.8531052 0 -0.00071095917)
(5.8203293 0 -0.00068027101)
(5.7875882 0 -0.00065083614)
(5.754879 0 -0.00062260826)
(5.7221993 0 -0.00059554242)
(5.6895463 0 -0.00056959501)
(5.6569178 0 -0.00054472375)
(5.6243114 0 -0.00052088764)
(5.5917251 0 -0.00049804702)
(5.559157 0 -0.00047616352)
(5.5266051 0 -0.00045519993)
(5.4940675 0 -0.00043512031)
(5.4615429 0 -0.00041588998)
(5.4290297 0 -0.00039747542)
(5.3965265 0 -0.00037984421)
(5.364032 0 -0.0003629651)
(5.3315451 0 -0.00034680802)
(5.2990648 0 -0.00033134384)
(5.26659 0 -0.00031654452)
(5.2341199 0 -0.00030238308)
(5.2016536 0 -0.00028883352)
(5.1691906 0 -0.00027587077)
(5.13673 0 -0.00026347067)
(5.1042715 0 -0.00025161007)
(5.0718144 0 -0.00024026661)
(5.0393582 0 -0.00022941875)
(5.0069026 0 -0.00021904586)
(4.9744472 0 -0.00020912809)
(4.9419918 0 -0.00019964635)
(4.909536 0 -0.00019058225)
(4.8770796 0 -0.00018191817)
(4.8446224 0 -0.00017363717)
(4.8121641 0 -0.00016572296)
(4.7797047 0 -0.00015815995)
(4.7472439 0 -0.00015093313)
(4.7147815 0 -0.0001440281)
(4.6823178 0 -0.00013743109)
(4.6498525 0 -0.00013112885)
(4.6173851 0 -0.0001251086)
(4.5849156 0 -0.00011935816)
(4.5524441 0 -0.00011386586)
(4.5199704 0 -0.00010862054)
(4.4874944 0 -0.00010361139)
(4.4550152 0 -9.8828081e-05)
(4.4225332 0 -9.4260796e-05)
(4.3900476 0 -8.990003e-05)
(4.3575582 0 -8.5736729e-05)
(4.3250645 0 -8.1762226e-05)
(4.2925655 0 -7.7968159e-05)
(4.2600612 0 -7.4346642e-05)
(4.2275498 0 -7.0889935e-05)
(4.1950303 0 -6.7590759e-05)
(4.1625018 0 -6.444217e-05)
(4.1299623 0 -6.1437413e-05)
(4.0974099 0 -5.8570099e-05)
(4.0648425 0 -5.583411e-05)
(4.0322575 0 -5.3223564e-05)
(3.9996512 0 -5.0732828e-05)
(3.967019 0 -4.8356473e-05)
(3.9343568 0 -4.6089396e-05)
(3.901659 0 -4.392667e-05)
(3.8689182 0 -4.1863552e-05)
(3.8361278 0 -3.9895605e-05)
(3.8032779 0 -3.8018487e-05)
(3.7703561 0 -3.6228011e-05)
(3.7373496 0 -3.4520266e-05)
(3.7042437 0 -3.2891519e-05)
(3.6710183 0 -3.13381e-05)
(3.6376507 0 -2.9856528e-05)
(3.604116 0 -2.8443574e-05)
(3.5703824 0 -2.7096037e-05)
(3.5364121 0 -2.5810863e-05)
(3.5021627 0 -2.4585213e-05)
(3.46758 0 -2.3416228e-05)
(3.432603 0 -2.2301274e-05)
(3.3971596 0 -2.1237824e-05)
(3.3611648 0 -2.0223469e-05)
(3.3245173 0 -1.9255853e-05)
(3.2870931 0 -1.8332616e-05)
(3.2487556 0 -1.745171e-05)
(3.2093426 0 -1.6611092e-05)
(3.168657 0 -1.5808656e-05)
(3.1264795 0 -1.504256e-05)
(3.0825551 0 -1.4310971e-05)
(3.0365839 0 -1.3612002e-05)
(2.9882401 0 -1.2944039e-05)
(2.9371619 0 -1.2305492e-05)
(2.8829395 0 -1.1694659e-05)
(2.8251447 0 -1.1109996e-05)
(2.7633442 0 -1.0550061e-05)
(2.6971263 0 -1.0013528e-05)
(2.6261092 0 -9.4989841e-06)
(2.5500104 0 -9.0052184e-06)
(2.468689 0 -8.5311021e-06)
(2.3821532 0 -8.0754446e-06)
(2.2906686 0 -7.6373743e-06)
(2.1947303 0 -7.2160571e-06)
(2.0950237 0 -6.8106147e-06)
(1.9924543 0 -6.4204265e-06)
(1.8880848 0 -6.0450625e-06)
(1.7829661 0 -5.6839502e-06)
(1.6780914 0 -5.3365126e-06)
(1.5744383 0 -5.0024872e-06)
(1.4728397 0 -4.6816008e-06)
(1.3739256 0 -4.3734597e-06)
(1.2781779 0 -4.0777153e-06)
(1.1859427 0 -3.7940593e-06)
(1.0974247 0 -3.5221355e-06)
(1.0127669 0 -3.2617148e-06)
(0.93198824 0 -3.0124356e-06)
(0.8550603 0 -2.773975e-06)
(0.78192744 0 -2.5460626e-06)
(0.71243016 0 -2.3281976e-06)
(0.64646632 0 -2.1201198e-06)
(0.58391043 0 -1.9215371e-06)
(0.52459007 0 -1.7320297e-06)
(0.46838073 0 -1.551339e-06)
(0.41511949 0 -1.3790862e-06)
(0.36463739 0 -1.2148655e-06)
(0.31685176 0 -1.0585441e-06)
(0.27158694 0 -9.0967771e-07)
(0.22869548 0 -7.6789918e-07)
(0.18808897 0 -6.3302679e-07)
(0.14961805 0 -5.0466625e-07)
(0.11316294 0 -3.8251077e-07)
(0.078663821 0 -2.6643449e-07)
(0.046000492 0 -1.5607223e-07)
(0.015052656 0 -5.1055137e-08)
(0.012338093 0 2.8180168e-12)
(0.037704094 0 4.3450352e-11)
(0.064488286 0 1.3279126e-10)
(0.092769926 0 2.8051805e-10)
(0.12263266 0 4.9496233e-10)
(0.15416472 0 7.8605042e-10)
(0.18745915 0 1.1653565e-09)
(0.22261393 0 1.6461548e-09)
(0.25973215 0 2.2437285e-09)
(0.29892208 0 2.9744462e-09)
(0.34029711 0 3.8574153e-09)
(0.38397564 0 4.9136031e-09)
(0.43008067 0 6.1671983e-09)
(0.47873918 0 7.6447316e-09)
(0.5300811 0 9.3756609e-09)
(0.58423767 0 1.1393516e-08)
(0.64133918 0 1.3735549e-08)
(0.70151162 0 1.6442045e-08)
(0.76487212 0 1.9558451e-08)
(0.83152277 0 2.313421e-08)
(0.90154236 0 2.7222719e-08)
(0.97497591 0 3.1881445e-08)
(1.0518214 0 3.7171284e-08)
(1.1320139 0 4.3154802e-08)
(1.2154078 0 4.9896063e-08)
(1.3017574 0 5.7458666e-08)
(1.390699 0 6.5900979e-08)
(1.4817377 0 7.5277192e-08)
(1.5742426 0 8.5632078e-08)
(1.6674554 0 9.6998927e-08)
(1.7605171 0 1.0940058e-07)
(1.8525117 0 1.2284738e-07)
(1.9425258 0 1.3734262e-07)
(2.0297145 0 1.5288467e-07)
(2.113363 0 1.6947029e-07)
(2.1929324 0 1.8710351e-07)
(2.2680829 0 2.0579546e-07)
(2.3386722 0 2.2557112e-07)
(2.4047335 0 2.4646806e-07)
(2.4664408 0 2.6853822e-07)
(2.524069 0 2.9184694e-07)
(2.5779562 0 3.1647161e-07)
(2.6284711 0 3.4250127e-07)
(2.675988 0 3.7003454e-07)
(2.7208692 0 3.9917975e-07)
(2.7634541 0 4.3005349e-07)
(2.8040523 0 4.6278084e-07)
(2.8429416 0 4.9749411e-07)
(2.8803673 0 5.3433469e-07)
(2.9165442 0 5.7345171e-07)
(2.9516586 0 6.1500275e-07)
(2.985871 0 6.5915448e-07)
(3.0193191 0 7.0608338e-07)
(3.0521207 0 7.5597565e-07)
(3.0843759 0 8.0902847e-07)
(3.1161702 0 8.6545056e-07)
(3.1475757 0 9.254627e-07)
(3.1786539 0 9.8929885e-07)
(3.2094564 0 1.0572068e-06)
(3.2400273 0 1.1294491e-06)
(3.2704035 0 1.2063044e-06)
(3.3006164 0 1.2880679e-06)
(3.3306924 0 1.3750527e-06)
(3.3606538 0 1.467591e-06)
(3.3905193 0 1.5660355e-06)
(3.4203048 0 1.6707597e-06)
(3.4500236 0 1.782161e-06)
(3.4796871 0 1.9006603e-06)
(3.5093046 0 2.0267049e-06)
(3.5388841 0 2.1607691e-06)
(3.5684324 0 2.3033565e-06)
(3.597955 0 2.4550021e-06)
(3.6274567 0 2.616273e-06)
(3.6569415 0 2.7877717e-06)
(3.6864126 0 2.9701377e-06)
(3.715873 0 3.1640497e-06)
(3.7453249 0 3.3702281e-06)
(3.7747703 0 3.5894377e-06)
(3.8042108 0 3.8224902e-06)
(3.8336479 0 4.0702472e-06)
(3.8630825 0 4.3336233e-06)
(3.8925158 0 4.6135889e-06)
(3.9219485 0 4.9111745e-06)
(3.9513812 0 5.2274732e-06)
(3.9808146 0 5.5636457e-06)
(4.0102491 0 5.9209232e-06)
(4.039685 0 6.3006129e-06)
(4.0691228 0 6.7041017e-06)
(4.0985627 0 7.1328615e-06)
(4.1280049 0 7.5884543e-06)
(4.1574497 0 8.0725377e-06)
(4.1868973 0 8.5868703e-06)
(4.2163478 0 9.1333185e-06)
(4.2458014 0 9.7138628e-06)
(4.2752582 0 1.0330604e-05)
(4.3047185 0 1.0985773e-05)
(4.3341824 0 1.1681734e-05)
(4.36365 0 1.2420998e-05)
(4.3931214 0 1.3206227e-05)
(4.422597 0 1.4040249e-05)
(4.4520769 0 1.4926061e-05)
(4.4815612 0 1.5866844e-05)
(4.5110502 0 1.6865973e-05)
(4.5405441 0 1.792703e-05)
(4.5700433 0 1.9053814e-05)
(4.599548 0 2.0250357e-05)
(4.6290584 0 2.1520937e-05)
(4.6585751 0 2.2870092e-05)
(4.6880982 0 2.4302639e-05)
(4.7176283 0 2.5823689e-05)
(4.7471658 0 2.7438665e-05)
(4.7767112 0 2.9153322e-05)
(4.806265 0 3.0973768e-05)
(4.8358278 0 3.2906485e-05)
(4.8654003 0 3.4958352e-05)
(4.8949831 0 3.7136673e-05)
(4.924577 0 3.9449197e-05)
(4.9541828 0 4.1904155e-05)
(4.9838014 0 4.4510281e-05)
(5.0134338 0 4.727685e-05)
(5.043081 0 5.0213711e-05)
(5.0727442 0 5.333132e-05)
(5.1024246 0 5.6640783e-05)
(5.1321237 0 6.0153898e-05)
(5.1618428 0 6.3883191e-05)
(5.1915836 0 6.7841974e-05)
(5.2213478 0 7.2044388e-05)
(5.2511373 0 7.6505455e-05)
(5.2809541 0 8.1241143e-05)
(5.3108006 0 8.6268416e-05)
(5.340679 0 9.1605308e-05)
(5.3705921 0 9.7270984e-05)
(5.4005426 0 0.00010328582)
(5.4305336 0 0.00010967146)
(5.4605684 0 0.00011645095)
(5.4906507 0 0.00012364875)
(5.5207844 0 0.00013129088)
(5.5509735 0 0.00013940501)
(5.5812227 0 0.00014802055)
(5.6115367 0 0.00015716877)
(5.6419209 0 0.00016688289)
(5.6723809 0 0.00017719824)
(5.7029227 0 0.00018815236)
(5.7335527 0 0.00019978512)
(5.764278 0 0.00021213889)
(5.7951057 0 0.00022525866)
(5.8260439 0 0.00023919219)
(5.8571007 0 0.00025399018)
(5.8882851 0 0.0002697064)
(5.9196063 0 0.00028639786)
(5.9510741 0 0.000304125)
(5.9826989 0 0.0003229518)
(6.0144913 0 0.00034294599)
(6.0464626 0 0.00036417921)
(6.0786244 0 0.00038672716)
(6.1109888 0 0.00041066973)
(6.1435682 0 0.00043609122)
(6.1763752 0 0.00046308038)
(6.209423 0 0.00049173064)
(6.2427246 0 0.00052214011)
(6.2762933 0 0.00055441176)
(6.3101426 0 0.00058865338)
(6.3442857 0 0.00062497769)
(6.3787357 0 0.00066350226)
(6.4135057 0 0.00070434948)
(6.4486083 0 0.00074764639)
(6.4840556 0 0.00079352456)
(6.5198591 0 0.00084211976)
(6.5560297 0 0.00089357167)
(6.5925772 0 0.00094802337)
(6.6295105 0 0.0010056208)
(6.6668374 0 0.0010665122)
(6.7045639 0 0.0011308469)
(6.7426946 0 0.0011987746)
(6.7812323 0 0.0012704444)
(6.8201774 0 0.0013460029)
(6.8595283 0 0.0014255928)
(6.8992803 0 0.0015093511)
(6.9394259 0 0.0015974068)
(6.9799542 0 0.0016898786)
(7.0208507 0 0.0017868721)
(7.0620965 0 0.0018884763)
(7.1036681 0 0.0019947607)
(7.1455373 0 0.0021057709)
(7.18767 0 0.0022215244)
(7.2300261 0 0.0023420059)
(7.272559 0 0.002467162)
(7.3152147 0 0.002596896)
(7.3579318 0 0.0027310611)
(7.4006402 0 0.0028694548)
(7.443261 0 0.0030118118)
(7.4857059 0 0.0031577972)
(7.5278764 0 0.0033069997)
(7.569664 0 0.0034589246)
(7.6109489 0 0.0036129872)
(7.6516007 0 0.0037685072)
(7.6914778 0 0.0039247037)
(7.730428 0 0.0040806918)
(7.7682888 0 0.0042354815)
(7.8048884 0 0.0043879795)
(7.8400475 0 0.0045369947)
(7.8735809 0 0.0046812489)
(7.905301 0 0.0048193936)
(7.9350214 0 0.0049500337)
(7.9625619 0 0.0050717565)
(7.9877557 0 0.0051831776)
(8.0104567 0 0.0052830023)
(8.0305482 0 0.0053700899)
(8.0479504 0 0.0054435104)
(8.0626285 0 0.0055025733)
(8.0745986 0 0.0055468119)
(8.0839311 0 0.005575935)
(8.0907523 0 0.0055898004)
(8.0952433 0 0.0055884651)
(8.097641 0 0.0055722772)
(8.0982402 0 0.0055418105)
(8.0973972 0 0.005497982)
(8.095548 0 0.0054421762)
(8.093184 0 0.0053757505)
(8.0908076 0 0.0053000727)
(8.0888608 0 0.0052165461)
(8.0876133 0 0.0051271877)
(8.0870618 0 0.0050342896)
(8.0870093 0 0.0049384098)
(8.0872424 0 0.004839121)
(8.0875916 0 0.0047363396)
(8.0879204 0 0.0046297719)
(8.0881311 0 0.0045190687)
(8.0881983 0 0.004404054)
(8.0881643 0 0.0042849356)
(8.0880857 0 0.0041619232)
(8.0880044 0 0.0040349544)
(8.0879459 0 0.0039040649)
(8.0879152 0 0.003769436)
(8.0879012 0 0.0036311864)
(8.0878915 0 0.003489385)
(8.0878783 0 0.0033441052)
(8.0878598 0 0.0031953788)
(8.0878386 0 0.0030432651)
(8.0878175 0 0.0028878601)
(8.0877979 0 0.0027292785)
(8.0877798 0 0.0025676581)
(8.0877627 0 0.0024031451)
(8.0877463 0 0.0022358984)
(8.0877305 0 0.0020660902)
(8.0877155 0 0.0018939077)
(8.0877015 0 0.0017195533)
(8.0876886 0 0.0015432427)
(8.0876769 0 0.0013652042)
(8.0876663 0 0.0011856775)
(8.0876569 0 0.0010049126)
(8.0876488 0 0.00082316975)
(8.087642 0 0.00064071976)
(8.0876365 0 0.00045783111)
(8.0876324 0 0.00027467777)
(8.0876297 0 9.1522363e-05)
(8.0876297 0 -9.1520934e-05)
(8.0876324 0 -0.00027467635)
(8.0876365 0 -0.00045782969)
(8.087642 0 -0.00064071834)
(8.0876488 0 -0.00082316832)
(8.0876569 0 -0.0010049112)
(8.0876663 0 -0.001185676)
(8.0876769 0 -0.0013652028)
(8.0876886 0 -0.0015432413)
(8.0877015 0 -0.0017195518)
(8.0877155 0 -0.0018939063)
(8.0877305 0 -0.0020660887)
(8.0877463 0 -0.002235897)
(8.0877627 0 -0.0024031436)
(8.0877798 0 -0.0025676567)
(8.0877979 0 -0.002729277)
(8.0878175 0 -0.0028878587)
(8.0878386 0 -0.0030432637)
(8.0878598 0 -0.0031953774)
(8.0878783 0 -0.0033441038)
(8.0878915 0 -0.0034893836)
(8.0879012 0 -0.003631185)
(8.0879152 0 -0.0037694347)
(8.0879459 0 -0.0039040636)
(8.0880044 0 -0.0040349531)
(8.0880857 0 -0.0041619219)
(8.0881643 0 -0.0042849339)
(8.0881983 0 -0.0044040517)
(8.0881311 0 -0.0045190709)
(8.0879203 0 -0.0046297849)
(8.0875915 0 -0.0047363165)
(8.0872424 0 -0.0048391122)
(8.0870093 0 -0.0049384201)
(8.0870618 0 -0.0050342867)
(8.0876133 0 -0.0051271922)
(8.0888608 0 -0.0052165431)
(8.0908076 0 -0.0053000721)
(8.093184 0 -0.0053757498)
(8.095548 0 -0.0054421756)
(8.0973972 0 -0.0054979814)
(8.0982402 0 -0.0055418099)
(8.097641 0 -0.0055722766)
(8.0952433 0 -0.0055884644)
(8.0907523 0 -0.0055897998)
(8.0839311 0 -0.0055759344)
(8.0745986 0 -0.0055468114)
(8.0626285 0 -0.0055025727)
(8.0479504 0 -0.0054435099)
(8.0305482 0 -0.0053700894)
(8.0104567 0 -0.0052830018)
(7.9877557 0 -0.0051831771)
(7.9625619 0 -0.0050717561)
(7.9350214 0 -0.0049500333)
(7.905301 0 -0.0048193932)
(7.8735809 0 -0.0046812485)
(7.8400475 0 -0.0045369944)
(7.8048885 0 -0.0043879792)
(7.7682888 0 -0.0042354812)
(7.730428 0 -0.0040806915)
(7.6914778 0 -0.0039247034)
(7.6516007 0 -0.0037685069)
(7.6109489 0 -0.0036129869)
(7.569664 0 -0.0034589243)
(7.5278765 0 -0.0033069995)
(7.4857059 0 -0.003157797)
(7.443261 0 -0.0030118116)
(7.4006402 0 -0.0028694546)
(7.3579318 0 -0.0027310609)
(7.3152148 0 -0.0025968958)
(7.272559 0 -0.0024671619)
(7.2300261 0 -0.0023420057)
(7.18767 0 -0.0022215242)
(7.1455373 0 -0.0021057708)
(7.1036682 0 -0.0019947606)
(7.0620965 0 -0.0018884762)
(7.0208507 0 -0.001786872)
(6.9799543 0 -0.0016898785)
(6.9394259 0 -0.0015974067)
(6.8992803 0 -0.001509351)
(6.8595283 0 -0.0014255927)
(6.8201774 0 -0.0013460028)
(6.7812323 0 -0.0012704444)
(6.7426946 0 -0.0011987746)
(6.7045639 0 -0.0011308468)
(6.6668374 0 -0.0010665121)
(6.6295106 0 -0.0010056208)
(6.5925772 0 -0.00094802331)
(6.5560297 0 -0.00089357161)
(6.5198591 0 -0.0008421197)
(6.4840556 0 -0.0007935245)
(6.4486083 0 -0.00074764634)
(6.4135058 0 -0.00070434943)
(6.3787357 0 -0.00066350222)
(6.3442857 0 -0.00062497765)
(6.3101426 0 -0.00058865334)
(6.2762934 0 -0.00055441172)
(6.2427246 0 -0.00052214007)
(6.209423 0 -0.0004917306)
(6.1763753 0 -0.00046308035)
(6.1435682 0 -0.00043609118)
(6.1109888 0 -0.0004106697)
(6.0786244 0 -0.00038672713)
(6.0464626 0 -0.00036417919)
(6.0144913 0 -0.00034294596)
(5.9826989 0 -0.00032295177)
(5.9510742 0 -0.00030412498)
(5.9196063 0 -0.00028639784)
(5.8882851 0 -0.00026970638)
(5.8571008 0 -0.00025399016)
(5.8260439 0 -0.00023919217)
(5.7951057 0 -0.00022525864)
(5.764278 0 -0.00021213887)
(5.7335528 0 -0.0001997851)
(5.7029227 0 -0.00018815234)
(5.6723809 0 -0.00017719823)
(5.6419209 0 -0.00016688288)
(5.6115367 0 -0.00015716876)
(5.5812227 0 -0.00014802054)
(5.5509735 0 -0.000139405)
(5.5207844 0 -0.00013129087)
(5.4906508 0 -0.00012364874)
(5.4605685 0 -0.00011645094)
(5.4305336 0 -0.00010967146)
(5.4005426 0 -0.00010328581)
(5.3705921 0 -9.7270974e-05)
(5.340679 0 -9.1605298e-05)
(5.3108006 0 -8.6268409e-05)
(5.2809542 0 -8.1241137e-05)
(5.2511373 0 -7.6505448e-05)
(5.2213478 0 -7.2044379e-05)
(5.1915836 0 -6.7841966e-05)
(5.1618428 0 -6.3883185e-05)
(5.1321237 0 -6.0153891e-05)
(5.1024247 0 -5.6640778e-05)
(5.0727442 0 -5.3331315e-05)
(5.043081 0 -5.0213704e-05)
(5.0134338 0 -4.7276843e-05)
(4.9838014 0 -4.4510277e-05)
(4.9541828 0 -4.1904153e-05)
(4.924577 0 -3.9449194e-05)
(4.8949831 0 -3.7136669e-05)
(4.8654004 0 -3.4958351e-05)
(4.8358279 0 -3.2906482e-05)
(4.806265 0 -3.0973762e-05)
(4.7767112 0 -2.9153319e-05)
(4.7471659 0 -2.7438663e-05)
(4.7176284 0 -2.5823687e-05)
(4.6880982 0 -2.4302637e-05)
(4.6585751 0 -2.287009e-05)
(4.6290585 0 -2.1520936e-05)
(4.599548 0 -2.0250355e-05)
(4.5700434 0 -1.9053814e-05)
(4.5405443 0 -1.7927032e-05)
(4.5110503 0 -1.6865974e-05)
(4.4815612 0 -1.5866843e-05)
(4.4520769 0 -1.4926059e-05)
(4.4225971 0 -1.4040249e-05)
(4.3931215 0 -1.3206228e-05)
(4.3636501 0 -1.2420999e-05)
(4.3341825 0 -1.1681736e-05)
(4.3047186 0 -1.0985773e-05)
(4.2752583 0 -1.0330605e-05)
(4.2458014 0 -9.7138624e-06)
(4.2163477 0 -9.1333154e-06)
(4.1868972 0 -8.5868682e-06)
(4.1574498 0 -8.0725382e-06)
(4.128005 0 -7.5884546e-06)
(4.0985626 0 -7.1328594e-06)
(4.0691226 0 -6.7040984e-06)
(4.0396849 0 -6.3006114e-06)
(4.0102492 0 -5.9209237e-06)
(3.9808146 0 -5.5636449e-06)
(3.9513813 0 -5.2274734e-06)
(3.9219485 0 -4.9111744e-06)
(3.8925157 0 -4.6135882e-06)
(3.8630825 0 -4.3336229e-06)
(3.8336477 0 -4.0702457e-06)
(3.804211 0 -3.8224915e-06)
(3.7747704 0 -3.5894383e-06)
(3.7453247 0 -3.3702269e-06)
(3.7158729 0 -3.1640488e-06)
(3.6864123 0 -2.970136e-06)
(3.656941 0 -2.7877692e-06)
(3.6274563 0 -2.6162712e-06)
(3.5979549 0 -2.4550021e-06)
(3.5684327 0 -2.3033586e-06)
(3.5388844 0 -2.1607706e-06)
(3.5093048 0 -2.0267061e-06)
(3.4796873 0 -1.9006614e-06)
(3.4500234 0 -1.7821604e-06)
(3.4203048 0 -1.6707602e-06)
(3.3905198 0 -1.5660376e-06)
(3.3606541 0 -1.4675925e-06)
(3.3306925 0 -1.3750534e-06)
(3.3006169 0 -1.2880698e-06)
(3.2704041 0 -1.2063066e-06)
(3.2400271 0 -1.1294493e-06)
(3.2094563 0 -1.0572071e-06)
(3.1786539 0 -9.8929937e-07)
(3.1475754 0 -9.2546259e-07)
(3.1161705 0 -8.6545178e-07)
(3.084376 0 -8.0902921e-07)
(3.0521199 0 -7.5597504e-07)
(3.0193177 0 -7.0608201e-07)
(2.9858702 0 -6.5915421e-07)
(2.9516597 0 -6.1500483e-07)
(2.9165442 0 -5.7345231e-07)
(2.8803667 0 -5.3433501e-07)
(2.842943 0 -4.9749641e-07)
(2.8040533 0 -4.6278225e-07)
(2.7634551 0 -4.300551e-07)
(2.7208721 0 -3.9918264e-07)
(2.675988 0 -3.7003525e-07)
(2.6284685 0 -3.4250066e-07)
(2.5779579 0 -3.1647314e-07)
(2.5240732 0 -2.9184937e-07)
(2.4664437 0 -2.6853984e-07)
(2.4047326 0 -2.4646811e-07)
(2.3386736 0 -2.2557199e-07)
(2.2680841 0 -2.0579593e-07)
(2.1929335 0 -1.8710404e-07)
(2.1133731 0 -1.6947274e-07)
(2.0297202 0 -1.5288597e-07)
(1.9425294 0 -1.3734386e-07)
(1.8525237 0 -1.2284953e-07)
(1.7605222 0 -1.0940123e-07)
(1.6674441 0 -9.6997672e-08)
(1.5742405 0 -8.5632056e-08)
(1.4817531 0 -7.5279264e-08)
(1.3907013 0 -6.5901395e-08)
(1.3017463 0 -5.7457662e-08)
(1.2154042 0 -4.9896147e-08)
(1.1320214 0 -4.3155669e-08)
(1.0518351 0 -3.7172254e-08)
(0.97499231 0 -3.1882968e-08)
(0.9015469 0 -2.7223292e-08)
(0.83152538 0 -2.3134528e-08)
(0.76487247 0 -1.9558754e-08)
(0.70151155 0 -1.6442164e-08)
(0.64135731 0 -1.373648e-08)
(0.58425001 0 -1.1394237e-08)
(0.53008527 0 -9.3761535e-09)
(0.47874557 0 -7.6451356e-09)
(0.4300793 0 -6.1674191e-09)
(0.38397738 0 -4.91402e-09)
(0.34030141 0 -3.8576791e-09)
(0.29890971 0 -2.9744975e-09)
(0.25973237 0 -2.2438819e-09)
(0.22262399 0 -1.6465743e-09)
(0.18746283 0 -1.1654133e-09)
(0.15417585 0 -7.8620471e-10)
(0.12264025 0 -4.9511782e-10)
(0.092757632 0 -2.8059961e-10)
(0.064478825 0 -1.3278777e-10)
(0.037705202 0 -4.3521565e-11)
(0.012338094 0 -2.8191649e-12)
(0.011870347 0 6.5320144e-13)
(0.0362747 0 1.000488e-11)
(0.062043469 0 3.0568942e-11)
(0.0892529 0 6.4517949e-11)
(0.11798346 0 1.1384023e-10)
(0.14832004 0 1.806546e-10)
(0.18035216 0 2.6780526e-10)
(0.21417412 0 3.7836415e-10)
(0.24988515 0 5.1564129e-10)
(0.2875895 0 6.8366706e-10)
(0.32739645 0 8.8668629e-10)
(0.36942017 0 1.1294713e-09)
(0.41377943 0 1.4177998e-09)
(0.46059705 0 1.7576234e-09)
(0.50999901 0 2.1558212e-09)