/*--------------------------------*- C++ -*----------------------------------*\
| =========                 |                                                 |
| \\      /  F ield         | OpenFOAM: The Open Source CFD Toolbox           |
|  \\    /   O peration     | Version:  2112                                  |
|   \\  /    A nd           | Website:  www.openfoam.com                      |
|    \\/     M anipulation  |                                                 |
\*---------------------------------------------------------------------------*/
FoamFile
{
    version     2.0;
    format      ascii;
    arch        "LSB;label=32;scalar=64";
    class       volVectorField;
    location    "4416";
    object      wallShearStress;
}
// * * * * * * * * * * * * * * * * * * * * * * * * * * * * * * * * * * * * * //

dimensions      [0 2 -2 0 0 0 0];

internalField   uniform (0 0 0);

boundaryField
{
    frontAndBack
    {
        type            empty;
    }
    frontAndBack
    {
        type            empty;
    }
    inlet
    {
        type            calculated;
        value           uniform (0 0 0);
    }
    outlet
    {
        type            calculated;
        value           uniform (0 0 0);
    }
    bottom
    {
        type            calculated;
        value           nonuniform List<vector> 
160
(
(-0.060210625 0 0.0036249107)
(-0.049352374 0 -4.2185125e-11)
(-0.04748139 0 0.0022544823)
(-0.046427757 0 -5.7474709e-12)
(-0.045746942 0 0.0020927827)
(-0.045346362 0 -2.1895588e-12)
(-0.045099427 0 0.0020339583)
(-0.044939828 0 -8.418229e-13)
(-0.044851039 0 0.0020116157)
(-0.044819313 0 -1.2931849e-13)
(-0.044829097 0 0.0020096479)
(-0.044871216 0 3.5247275e-13)
(-0.044940013 0 0.0020196048)
(-0.045030568 0 6.6289537e-13)
(-0.045139357 0 0.0020375616)
(-0.04526425 0 8.5218435e-13)
(-0.045404424 0 0.0020615617)
(-0.045559583 0 1.07945e-12)
(-0.045728364 0 0.0020910833)
(-0.045907118 0 1.2553096e-12)
(-0.046089902 0 0.002124279)
(-0.046269582 0 1.1604452e-12)
(-0.046439349 0 0.0021566132)
(-0.04659381 0 9.2984095e-13)
(-0.046729514 0 0.0021836475)
(-0.046844941 0 7.2796557e-13)
(-0.046940167 0 0.0022033793)
(-0.047016441 0 5.1311384e-13)
(-0.047075749 0 0.0022161261)
(-0.047120451 0 1.8492092e-13)
(-0.047152997 0 0.0022234051)
(-0.04717572 0 -3.2197031e-14)
(-0.047190726 0 0.0022269646)
(-0.047199827 0 3.2557526e-14)
(-0.047204541 0 0.0022282686)
(-0.047206094 0 2.7870647e-14)
(-0.047205465 0 0.002228356)
(-0.04720341 0 -1.0120812e-13)
(-0.047200504 0 0.0022278876)
(-0.047197166 0 6.6986364e-16)
(-0.047193722 0 0.0022272474)
(-0.047190344 0 -8.8798172e-14)
(-0.047187186 0 0.0022266305)
(-0.047184331 0 -3.8885902e-14)
(-0.047181818 0 0.002226124)
(-0.047179658 0 7.107335e-15)
(-0.047177839 0 0.0022257485)
(-0.04717634 0 -6.2535786e-14)
(-0.047175128 0 0.0022254927)
(-0.047174172 0 -3.7326325e-14)
(-0.047173434 0 0.0022253329)
(-0.047172881 0 -3.5427649e-14)
(-0.047172482 0 0.0022252431)
(-0.047172208 0 -6.3675832e-14)
(-0.047172034 0 0.0022252008)
(-0.047171938 0 -1.7008818e-15)
(-0.047171903 0 0.0022251884)
(-0.047171912 0 -4.7700543e-14)
(-0.047171954 0 0.0022251933)
(-0.047172016 0 6.3170245e-15)
(-0.047172112 0 0.0022252082)
(-0.047172197 0 -2.9266032e-14)
(-0.047172286 0 0.0022252245)
(-0.047172378 0 8.7544122e-15)
(-0.04717247 0 0.0022252419)
(-0.047172561 0 4.7239971e-15)
(-0.047172647 0 0.0022252586)
(-0.04717273 0 -2.1331483e-14)
(-0.047172808 0 0.0022252738)
(-0.047172881 0 -3.2172937e-14)
(-0.047172951 0 0.0022252873)
(-0.047173015 0 3.1555952e-14)
(-0.047173076 0 0.0022252991)
(-0.047173133 0 2.6792361e-14)
(-0.047173187 0 0.0022253095)
(-0.047173237 0 -6.6225088e-15)
(-0.047173284 0 0.0022253188)
(-0.047173329 0 -3.1831373e-14)
(-0.047173372 0 0.002225327)
(-0.04717341 0 -3.0718367e-14)
(-0.047173465 0 0.0022253358)
(-0.047173496 0 -2.9220504e-14)
(-0.047173527 0 0.0022253416)
(-0.047173558 0 6.1072856e-15)
(-0.047173589 0 0.0022253475)
(-0.047173619 0 -1.5350773e-14)
(-0.047173648 0 0.0022253531)
(-0.047173677 0 4.7598447e-14)
(-0.047173704 0 0.0022253583)
(-0.04717373 0 -2.19048e-14)
(-0.047173756 0 0.0022253632)
(-0.04717378 0 2.0657377e-14)
(-0.047173804 0 0.0022253678)
(-0.047173827 0 -9.4664163e-15)
(-0.04717385 0 0.0022253721)
(-0.047173871 0 1.1628747e-14)
(-0.047173892 0 0.0022253761)
(-0.047173912 0 -9.2823059e-15)
(-0.047173932 0 0.0022253798)
(-0.047173948 0 -1.8159998e-14)
(-0.047173983 0 0.0022253847)
(-0.047173996 0 2.7540954e-14)
(-0.047174008 0 0.0022253871)
(-0.047174023 0 -3.053296e-14)
(-0.047174037 0 0.0022253898)
(-0.047174053 0 -3.5236525e-14)
(-0.047174067 0 0.0022253926)
(-0.047174082 0 -1.1127358e-15)
(-0.047174096 0 0.0022253953)
(-0.047174109 0 -1.4443797e-14)
(-0.047174123 0 0.0022253979)
(-0.047174136 0 1.1524645e-14)
(-0.047174149 0 0.0022254003)
(-0.047174161 0 2.1485701e-14)
(-0.047174173 0 0.0022254026)
(-0.047174184 0 -9.2348297e-16)
(-0.047174196 0 0.0022254048)
(-0.047174206 0 -2.6110732e-14)
(-0.047174218 0 0.0022254068)
(-0.047174226 0 -2.8408651e-14)
(-0.047174252 0 0.0022254101)
(-0.047174257 0 5.7501581e-15)
(-0.047174262 0 0.002225411)
(-0.047174269 0 2.4820507e-14)
(-0.047174277 0 0.0022254124)
(-0.047174285 0 2.6657802e-15)
(-0.047174293 0 0.0022254139)
(-0.047174301 0 -3.5315707e-15)
(-0.047174309 0 0.0022254154)
(-0.047174316 0 6.2775277e-15)
(-0.047174324 0 0.0022254169)
(-0.047174332 0 -1.4602879e-14)
(-0.047174341 0 0.0022254185)
(-0.047174351 0 -2.7142684e-14)
(-0.047174364 0 0.0022254206)
(-0.047174378 0 1.3920698e-14)
(-0.047174395 0 0.0022254236)
(-0.047174417 0 -2.6117788e-14)
(-0.047174443 0 0.002225428)
(-0.047174471 0 4.7094273e-15)
(-0.04717452 0 0.0022254354)
(-0.047174556 0 -1.7428776e-14)
(-0.0471746 0 0.0022254428)
(-0.047174651 0 2.376012e-15)
(-0.047174708 0 0.0022254531)
(-0.047174771 0 4.8670493e-15)
(-0.047174837 0 0.0022254653)
(-0.047174909 0 2.4745313e-15)
(-0.047174985 0 0.0022254792)
(-0.04717506 0 -2.0201277e-14)
(-0.047175137 0 0.0022254936)
(-0.047175216 0 -4.5243946e-15)
(-0.047175296 0 0.0022255086)
(-0.047175375 0 -2.5167472e-15)
(-0.047175455 0 0.0022255235)
(-0.047175533 0 -6.8472558e-15)
(-0.047175616 0 0.0022255387)
(-0.04717569 0 8.0689533e-15)
(-0.047175766 0 0.0022255529)
(-0.047175866 0 8.478686e-15)
)
;
    }
    top
    {
        type            calculated;
        value           nonuniform List<vector> 
160
(
(-0.060210625 0 -0.0036249107)
(-0.049352374 0 4.2191244e-11)
(-0.047481391 0 -0.0022544825)
(-0.046427761 0 5.8087969e-12)
(-0.045746949 0 -0.0020927833)
(-0.045346373 0 2.1169306e-12)
(-0.045099442 0 -0.0020339597)
(-0.044939848 0 8.0138439e-13)
(-0.044851063 0 -0.0020116179)
(-0.044819341 0 1.1944915e-13)
(-0.044829128 0 -0.0020096507)
(-0.04487125 0 -3.7698182e-13)
(-0.044940049 0 -0.002019608)
(-0.045030606 0 -6.4160851e-13)
(-0.045139396 0 -0.0020375651)
(-0.04526429 0 -8.7030105e-13)
(-0.045404464 0 -0.0020615654)
(-0.045559623 0 -1.1069484e-12)
(-0.045728404 0 -0.0020910869)
(-0.045907159 0 -1.2447778e-12)
(-0.04608994 0 -0.0021242826)
(-0.04626962 0 -1.1442987e-12)
(-0.046439387 0 -0.0021566166)
(-0.046593847 0 -9.7892263e-13)
(-0.046729549 0 -0.0021836508)
(-0.046844974 0 -7.0253311e-13)
(-0.046940199 0 -0.0022033823)
(-0.047016472 0 -4.4488034e-13)
(-0.047075779 0 -0.002216129)
(-0.047120481 0 -1.7220114e-13)
(-0.047153026 0 -0.0022234079)
(-0.04717575 0 -6.0671007e-14)
(-0.047190756 0 -0.0022269675)
(-0.047199859 0 -1.4339422e-14)
(-0.047204573 0 -0.0022282717)
(-0.047206128 0 1.9569101e-14)
(-0.047205501 0 -0.0022283593)
(-0.047203447 0 1.4722104e-14)
(-0.047200542 0 -0.0022278912)
(-0.047197206 0 2.6592872e-14)
(-0.047193763 0 -0.0022272512)
(-0.047190385 0 8.2003025e-14)
(-0.047187229 0 -0.0022266346)
(-0.047184377 0 7.655143e-14)
(-0.047181865 0 -0.0022261284)
(-0.047179707 0 3.8523837e-14)
(-0.04717789 0 -0.0022257533)
(-0.047176392 0 3.0149706e-14)
(-0.047175182 0 -0.0022254978)
(-0.047174226 0 5.1190327e-14)
(-0.04717349 0 -0.0022253382)
(-0.047172939 0 -9.3386633e-15)
(-0.047172541 0 -0.0022252487)
(-0.047172268 0 -2.0650943e-14)
(-0.047172096 0 -0.0022252066)
(-0.047172001 0 2.5648501e-14)
(-0.047171967 0 -0.0022251945)
(-0.047171977 0 -5.0068206e-14)
(-0.047172021 0 -0.0022251995)
(-0.047172084 0 1.3808835e-14)
(-0.04717218 0 -0.0022252145)
(-0.047172265 0 6.1773027e-14)
(-0.047172355 0 -0.0022252311)
(-0.047172449 0 -3.9379876e-14)
(-0.047172542 0 -0.0022252487)
(-0.047172634 0 -2.3035871e-16)
(-0.047172721 0 -0.0022252656)
(-0.047172805 0 2.9803021e-14)
(-0.047172884 0 -0.002225281)
(-0.047172959 0 -1.0663697e-14)
(-0.047173029 0 -0.0022252946)
(-0.047173094 0 3.0118954e-14)
(-0.047173156 0 -0.0022253067)
(-0.047173214 0 -2.9958279e-14)
(-0.047173269 0 -0.0022253173)
(-0.04717332 0 6.1421971e-14)
(-0.047173369 0 -0.0022253267)
(-0.047173414 0 -1.3181416e-14)
(-0.047173458 0 -0.0022253351)
(-0.047173497 0 -2.3343987e-14)
(-0.047173551 0 -0.0022253439)
(-0.047173584 0 -5.5167814e-14)
(-0.047173615 0 -0.00222535)
(-0.047173648 0 -8.3659266e-15)
(-0.04717368 0 -0.002225356)
(-0.047173711 0 3.3547923e-15)
(-0.047173741 0 -0.0022253618)
(-0.04717377 0 9.7795342e-15)
(-0.047173798 0 -0.0022253672)
(-0.047173826 0 4.7515607e-14)
(-0.047173852 0 -0.0022253723)
(-0.047173877 0 5.5304615e-15)
(-0.047173902 0 -0.0022253771)
(-0.047173926 0 -2.9189523e-14)
(-0.047173949 0 -0.0022253815)
(-0.047173971 0 -7.0124564e-15)
(-0.047173993 0 -0.0022253857)
(-0.047174014 0 -1.3213586e-14)
(-0.047174035 0 -0.0022253896)
(-0.047174052 0 2.7208114e-14)
(-0.047174086 0 -0.0022253944)
(-0.047174099 0 3.5710264e-14)
(-0.047174113 0 -0.0022253969)
(-0.047174129 0 4.9254793e-15)
(-0.047174144 0 -0.0022253999)
(-0.04717416 0 3.3472352e-14)
(-0.047174175 0 -0.0022254028)
(-0.047174191 0 -2.3244411e-14)
(-0.047174205 0 -0.0022254056)
(-0.04717422 0 -8.3828357e-15)
(-0.047174234 0 -0.0022254084)
(-0.047174248 0 8.2048933e-15)
(-0.047174261 0 -0.0022254109)
(-0.047174274 0 -2.0964697e-14)
(-0.047174287 0 -0.0022254134)
(-0.047174299 0 1.730294e-14)
(-0.047174311 0 -0.0022254157)
(-0.047174323 0 -4.2499085e-14)
(-0.047174335 0 -0.0022254178)
(-0.047174343 0 1.4353448e-14)
(-0.047174369 0 -0.0022254211)
(-0.047174374 0 -1.9781729e-15)
(-0.04717438 0 -0.0022254221)
(-0.047174388 0 9.0367477e-16)
(-0.047174396 0 -0.0022254237)
(-0.047174405 0 1.3940626e-14)
(-0.047174414 0 -0.0022254253)
(-0.047174423 0 3.9623431e-15)
(-0.047174431 0 -0.002225427)
(-0.04717444 0 2.0115168e-14)
(-0.047174448 0 -0.0022254286)
(-0.047174457 0 -1.1527493e-14)
(-0.047174466 0 -0.0022254303)
(-0.047174477 0 1.5923185e-15)
(-0.04717449 0 -0.0022254325)
(-0.047174504 0 -1.000227e-14)
(-0.047174522 0 -0.0022254356)
(-0.047174544 0 -2.4345141e-15)
(-0.04717457 0 -0.0022254401)
(-0.047174599 0 -6.7431955e-15)
(-0.047174647 0 -0.0022254473)
(-0.047174683 0 1.1546766e-14)
(-0.047174726 0 -0.0022254548)
(-0.047174777 0 3.5415324e-15)
(-0.047174834 0 -0.002225465)
(-0.047174897 0 7.5451741e-15)
(-0.047174964 0 -0.0022254772)
(-0.047175035 0 -9.8072098e-15)
(-0.047175108 0 -0.0022254908)
(-0.047175184 0 4.7273807e-15)
(-0.047175261 0 -0.0022255052)
(-0.047175338 0 -4.261181e-15)
(-0.047175417 0 -0.0022255199)
(-0.047175494 0 1.0550145e-15)
(-0.047175572 0 -0.0022255346)
(-0.047175649 0 -2.487931e-15)
(-0.047175725 0 -0.002225549)
(-0.047175801 0 5.8673667e-16)
(-0.047175871 0 -0.0022255628)
(-0.047175971 0 5.4486617e-15)
)
;
    }
}


// ************************************************************************* //
