# Solver information
# Time          	U_solver        	Ux_initial      	Ux_final        	Ux_iters        	Uz_initial      	Uz_final        	Uz_iters        	U_converged     	nuTilda_solver  	nuTilda_initial 	nuTilda_final   	nuTilda_iters   	nuTilda_converged	p_solver        	p_initial       	p_final         	p_iters         	p_converged     
1               	DILUPBiCGStab	1.00000000e+00	1.58459770e-09	5	1.00000000e+00	8.56556700e-10	6	false	DILUPBiCGStab	1.00000000e+00	3.99889340e-09	3	true	GAMG	1.00000000e+00	9.64472920e-02	2	true
2               	DILUPBiCGStab	1.03634330e-01	9.79154950e-09	7	3.02751210e-01	1.89891970e-09	8	false	DILUPBiCGStab	1.49507560e-01	1.41903880e-09	4	true	GAMG	4.09908520e-01	1.65959480e-02	1	true
3               	DILUPBiCGStab	7.05999190e-02	5.02974620e-09	7	3.06841930e-01	4.63982640e-09	8	false	DILUPBiCGStab	8.84372280e-02	6.15616580e-09	4	true	GAMG	2.50901800e-01	1.77705340e-02	1	true
4               	DILUPBiCGStab	4.57994610e-02	2.85104590e-09	7	1.81855160e-01	1.65758190e-09	8	false	DILUPBiCGStab	6.72763940e-02	1.72624300e-09	4	true	GAMG	1.92590120e-01	1.66892990e-02	1	true
5               	DILUPBiCGStab	4.27365750e-02	2.91030990e-09	7	1.65958100e-01	4.12541360e-09	7	false	DILUPBiCGStab	4.98244170e-02	1.27604690e-09	4	true	GAMG	1.37394140e-01	1.31858340e-02	1	true
6               	DILUPBiCGStab	3.39915190e-02	5.92496790e-09	6	1.84997980e-01	7.91184290e-09	7	false	DILUPBiCGStab	4.52838200e-02	7.71645500e-10	4	true	GAMG	1.12911050e-01	9.37642680e-03	1	true
7               	DILUPBiCGStab	3.05297950e-02	2.06343180e-09	6	1.84029650e-01	7.35378590e-09	7	false	DILUPBiCGStab	3.92642230e-02	8.11656720e-10	4	true	GAMG	1.00120900e-01	7.05355270e-03	1	true
8               	DILUPBiCGStab	2.88484870e-02	7.93996440e-09	6	1.62471540e-01	5.71323450e-09	7	false	DILUPBiCGStab	3.63839030e-02	1.16159260e-09	4	true	GAMG	8.48540740e-02	6.41549890e-03	1	true
9               	DILUPBiCGStab	2.58148960e-02	5.43135750e-09	6	1.37221640e-01	2.76061180e-09	7	false	DILUPBiCGStab	3.24535440e-02	7.35173000e-09	3	true	GAMG	7.25297410e-02	6.29641490e-03	1	true
10              	DILUPBiCGStab	2.27765820e-02	3.72988430e-09	6	1.18852810e-01	5.05043460e-09	7	false	DILUPBiCGStab	2.98348570e-02	7.74684050e-09	3	true	GAMG	6.48787430e-02	6.28252620e-03	1	true
11              	DILUPBiCGStab	1.97811250e-02	5.00001540e-09	6	1.05198600e-01	3.35490810e-09	7	false	DILUPBiCGStab	2.65850080e-02	7.21665180e-09	3	true	GAMG	5.88255530e-02	2.53438570e-03	2	true
12              	DILUPBiCGStab	2.22277080e-02	6.28479370e-09	6	1.21280150e-01	2.16903700e-09	7	false	DILUPBiCGStab	2.59121520e-02	9.41082210e-09	3	true	GAMG	5.40653900e-02	5.27031660e-03	1	true
13              	DILUPBiCGStab	1.82163830e-02	3.02271340e-09	6	9.09632270e-02	8.97549860e-09	7	false	DILUPBiCGStab	2.38716610e-02	7.68137710e-09	3	true	GAMG	4.89649850e-02	2.07146990e-03	2	true
14              	DILUPBiCGStab	1.88092520e-02	7.67523540e-09	5	1.13676110e-01	6.10063630e-09	6	false	DILUPBiCGStab	2.34054730e-02	1.02713430e-09	4	true	GAMG	5.55095880e-02	5.17266560e-03	1	true
15              	DILUPBiCGStab	1.54773520e-02	4.90569730e-09	6	9.78622130e-02	5.97187450e-10	7	false	DILUPBiCGStab	2.19568360e-02	8.73565810e-09	3	true	GAMG	5.03558550e-02	2.44972670e-03	2	true
16              	DILUPBiCGStab	1.69415320e-02	7.46942060e-09	5	1.00628390e-01	2.65550300e-09	6	false	DILUPBiCGStab	2.08336040e-02	8.98108190e-09	3	true	GAMG	5.28047750e-02	1.85408140e-03	2	true
17              	DILUPBiCGStab	1.50518290e-02	5.12380690e-09	6	9.22993720e-02	3.79073670e-09	6	false	DILUPBiCGStab	1.96935700e-02	8.22525950e-09	3	true	GAMG	4.87608690e-02	1.65832690e-03	2	true
18              	DILUPBiCGStab	1.27078330e-02	3.74748750e-09	6	7.69284410e-02	1.10889190e-09	7	false	DILUPBiCGStab	1.89100660e-02	8.26970740e-09	3	true	GAMG	4.40740460e-02	1.44443590e-03	2	true
19              	DILUPBiCGStab	1.14614190e-02	4.68859330e-09	6	6.82988240e-02	4.62845010e-09	6	false	DILUPBiCGStab	1.79145200e-02	7.80385970e-09	3	true	GAMG	4.00432520e-02	1.39959050e-03	2	true
20              	DILUPBiCGStab	1.07097400e-02	3.67486230e-09	6	6.08110140e-02	4.71688670e-09	6	false	DILUPBiCGStab	1.68796210e-02	7.87094220e-09	3	true	GAMG	3.67740420e-02	1.38895810e-03	2	true
21              	DILUPBiCGStab	9.92481260e-03	2.85350360e-09	6	5.56525040e-02	3.00769360e-09	6	false	DILUPBiCGStab	1.54755850e-02	7.29513870e-09	3	true	GAMG	3.39441570e-02	1.24285540e-03	2	true
22              	DILUPBiCGStab	9.00404740e-03	5.89874290e-09	6	5.13118190e-02	4.41314020e-09	6	false	DILUPBiCGStab	1.45129540e-02	7.06316880e-09	3	true	GAMG	3.15972510e-02	1.13243330e-03	2	true
23              	DILUPBiCGStab	8.05660100e-03	3.14037460e-09	6	4.84690960e-02	8.61523900e-09	6	false	DILUPBiCGStab	1.34186570e-02	6.46597830e-09	3	true	GAMG	2.99621410e-02	1.05846590e-03	2	true
24              	DILUPBiCGStab	7.27427960e-03	7.40707730e-09	5	4.69477950e-02	2.97370640e-09	6	false	DILUPBiCGStab	1.25447090e-02	6.35190230e-09	3	true	GAMG	2.89963610e-02	1.13051310e-03	2	true
25              	DILUPBiCGStab	6.86090940e-03	5.12263910e-09	6	4.77692580e-02	3.47099730e-09	6	false	DILUPBiCGStab	1.16739900e-02	5.71747450e-09	3	true	GAMG	2.85234440e-02	1.12893720e-03	2	true
26              	DILUPBiCGStab	6.73707280e-03	6.53434560e-09	6	4.91856500e-02	4.15310470e-09	6	false	DILUPBiCGStab	1.12144540e-02	5.71623810e-09	3	true	GAMG	2.81829570e-02	1.12835150e-03	2	true
27              	DILUPBiCGStab	6.84581880e-03	9.45056440e-09	5	5.03652740e-02	4.75125890e-09	6	false	DILUPBiCGStab	1.08268260e-02	5.27881850e-09	3	true	GAMG	2.84079240e-02	1.20865730e-03	2	true
28              	DILUPBiCGStab	6.99749650e-03	7.54647270e-09	5	5.09532910e-02	4.49847470e-09	6	false	DILUPBiCGStab	1.07221770e-02	1.72861770e-09	4	true	GAMG	2.86622590e-02	1.28932030e-03	2	true
29              	DILUPBiCGStab	7.18994270e-03	5.38812200e-09	6	5.09392020e-02	4.45341160e-09	6	false	DILUPBiCGStab	1.04370600e-02	8.97594980e-09	3	true	GAMG	2.87748870e-02	1.35512900e-03	2	true
30              	DILUPBiCGStab	7.31411180e-03	6.21917060e-09	5	5.03380980e-02	4.16250570e-09	6	false	DILUPBiCGStab	1.04400070e-02	5.89998170e-09	3	true	GAMG	2.90543120e-02	1.40801080e-03	2	true
31              	DILUPBiCGStab	7.34260280e-03	7.79145510e-09	5	4.96465870e-02	5.88714990e-10	7	false	DILUPBiCGStab	1.02129670e-02	5.45391160e-09	3	true	GAMG	2.88147450e-02	1.46920630e-03	2	true
32              	DILUPBiCGStab	7.16488200e-03	7.83674320e-09	5	4.94058640e-02	5.15257490e-09	6	false	DILUPBiCGStab	1.03320060e-02	5.32109360e-09	3	true	GAMG	2.84507810e-02	1.49157880e-03	2	true
33              	DILUPBiCGStab	6.85653520e-03	8.50791010e-09	5	4.94331820e-02	4.63311180e-09	6	false	DILUPBiCGStab	1.01124640e-02	4.65651330e-09	3	true	GAMG	2.79334270e-02	1.48774560e-03	2	true
34              	DILUPBiCGStab	6.44387060e-03	3.95952800e-09	6	4.89173580e-02	4.12678880e-09	6	false	DILUPBiCGStab	1.02687320e-02	4.80530280e-09	3	true	GAMG	2.71219290e-02	1.45441220e-03	2	true
35              	DILUPBiCGStab	6.10050210e-03	4.08710140e-09	6	4.72943800e-02	5.13768830e-09	6	false	DILUPBiCGStab	1.00228660e-02	4.51781700e-09	3	true	GAMG	2.65287960e-02	1.39490190e-03	2	true
36              	DILUPBiCGStab	5.75082060e-03	7.73559090e-09	5	4.49092830e-02	4.33167660e-09	6	false	DILUPBiCGStab	1.02611670e-02	4.76026560e-09	3	true	GAMG	2.55983210e-02	1.29822740e-03	2	true
37              	DILUPBiCGStab	5.43769420e-03	7.74419940e-09	5	4.24221210e-02	3.66093270e-09	6	false	DILUPBiCGStab	1.00473550e-02	4.85884380e-09	3	true	GAMG	2.44519560e-02	1.19816730e-03	2	true
38              	DILUPBiCGStab	5.04570500e-03	6.47950350e-09	5	4.00393740e-02	4.91321020e-09	6	false	DILUPBiCGStab	1.03773460e-02	5.57234730e-09	3	true	GAMG	2.32128580e-02	1.06105580e-03	2	true
39              	DILUPBiCGStab	4.69798820e-03	5.59973240e-09	6	3.69403510e-02	3.81608130e-09	6	false	DILUPBiCGStab	1.02047410e-02	6.22583770e-09	3	true	GAMG	2.19372330e-02	9.44702140e-04	2	true
40              	DILUPBiCGStab	4.33957610e-03	4.69850720e-09	6	3.44591650e-02	7.88329640e-09	6	false	DILUPBiCGStab	1.05723460e-02	7.61267340e-09	3	true	GAMG	2.08207530e-02	8.63823110e-04	2	true
41              	DILUPBiCGStab	3.99376720e-03	3.39882720e-09	6	3.21532430e-02	6.79024420e-09	6	false	DILUPBiCGStab	1.03783000e-02	3.08348680e-10	4	true	GAMG	1.97307620e-02	8.27802140e-04	2	true
42              	DILUPBiCGStab	3.69478680e-03	3.63642290e-09	6	3.00481910e-02	7.82263210e-09	6	false	DILUPBiCGStab	1.07009420e-02	3.18325950e-10	4	true	GAMG	1.87418270e-02	8.08054310e-04	2	true
43              	DILUPBiCGStab	3.43980620e-03	3.10551310e-09	6	2.88999030e-02	5.59984390e-09	6	false	DILUPBiCGStab	1.04341230e-02	3.70541890e-10	4	true	GAMG	1.78560310e-02	7.76677490e-04	2	true
44              	DILUPBiCGStab	3.25712500e-03	3.01452530e-09	6	2.79183400e-02	2.63278640e-09	7	false	DILUPBiCGStab	1.06822340e-02	4.53423210e-09	3	true	GAMG	1.70698640e-02	7.45650460e-04	2	true
45              	DILUPBiCGStab	3.13997410e-03	3.33328230e-09	6	2.77088620e-02	3.63161470e-09	6	false	DILUPBiCGStab	1.03494330e-02	3.38562780e-09	3	true	GAMG	1.65025540e-02	7.18638160e-04	2	true
46              	DILUPBiCGStab	3.11745240e-03	3.40758080e-09	6	2.76235620e-02	4.17050640e-09	6	false	DILUPBiCGStab	1.05252810e-02	3.11861530e-09	3	true	GAMG	1.60878820e-02	7.08762840e-04	2	true
47              	DILUPBiCGStab	3.14025140e-03	3.47835430e-09	6	2.79776560e-02	3.96155450e-09	6	false	DILUPBiCGStab	1.01034240e-02	2.73906810e-09	3	true	GAMG	1.56993420e-02	7.03008710e-04	2	true
48              	DILUPBiCGStab	3.17442960e-03	3.67528170e-09	6	2.82751160e-02	3.66418860e-09	6	false	DILUPBiCGStab	1.02188040e-02	2.50446200e-09	3	true	GAMG	1.54663780e-02	7.13169300e-04	2	true
49              	DILUPBiCGStab	3.22188510e-03	3.38828740e-09	6	2.87619410e-02	3.48649660e-09	6	false	DILUPBiCGStab	9.75886610e-03	2.15742270e-09	3	true	GAMG	1.52706310e-02	6.89429840e-04	2	true
50              	DILUPBiCGStab	3.24719830e-03	3.32407760e-09	6	2.91392470e-02	9.94867690e-09	6	false	DILUPBiCGStab	9.86599170e-03	2.05028600e-09	3	true	GAMG	1.50390910e-02	6.53758680e-04	2	true
51              	DILUPBiCGStab	3.29858890e-03	2.78234700e-09	6	2.93988910e-02	2.96466430e-09	6	false	DILUPBiCGStab	9.38627650e-03	1.82837360e-09	3	true	GAMG	1.47559330e-02	6.14201130e-04	2	true
52              	DILUPBiCGStab	3.30649110e-03	2.08316310e-09	6	2.95568790e-02	3.07914770e-09	6	false	DILUPBiCGStab	9.46318870e-03	1.76577760e-09	3	true	GAMG	1.44818980e-02	5.68672910e-04	2	true
53              	DILUPBiCGStab	3.33477450e-03	1.74154990e-09	6	2.94153730e-02	3.40903000e-09	6	false	DILUPBiCGStab	9.00562460e-03	1.64733360e-09	3	true	GAMG	1.42148950e-02	5.40174980e-04	2	true
54              	DILUPBiCGStab	3.30242520e-03	1.55759210e-09	6	2.94118160e-02	3.66040960e-09	6	false	DILUPBiCGStab	9.07703120e-03	1.58671100e-09	3	true	GAMG	1.38916500e-02	5.35098880e-04	2	true
55              	DILUPBiCGStab	3.27068680e-03	2.02610290e-09	6	2.92838750e-02	3.94817970e-09	6	false	DILUPBiCGStab	8.67888810e-03	1.39105130e-09	3	true	GAMG	1.36862430e-02	5.49208870e-04	2	true
56              	DILUPBiCGStab	3.20776090e-03	8.78346370e-09	5	2.91902370e-02	5.95691970e-09	6	false	DILUPBiCGStab	8.80640460e-03	1.34528380e-09	3	true	GAMG	1.34903720e-02	5.64537750e-04	2	true
57              	DILUPBiCGStab	3.15554300e-03	4.36057590e-09	6	2.92531150e-02	5.60457600e-09	7	false	DILUPBiCGStab	8.44533030e-03	1.80850470e-10	4	true	GAMG	1.32627620e-02	5.75248190e-04	2	true
58              	DILUPBiCGStab	3.09757080e-03	5.14761500e-09	5	2.94631900e-02	8.50809230e-09	6	false	DILUPBiCGStab	8.57415570e-03	2.52635540e-09	3	true	GAMG	1.30214640e-02	5.81179780e-04	2	true
59              	DILUPBiCGStab	3.06928690e-03	3.47014780e-09	5	2.98709110e-02	8.18563490e-09	5	false	DILUPBiCGStab	8.23560480e-03	1.80344420e-09	3	true	GAMG	1.27868760e-02	5.77720680e-04	2	true
60              	DILUPBiCGStab	3.01468050e-03	2.98631660e-09	5	3.03546010e-02	7.15945800e-09	5	false	DILUPBiCGStab	8.36264090e-03	1.41790690e-09	3	true	GAMG	1.24845440e-02	5.65337440e-04	2	true
61              	DILUPBiCGStab	2.99233150e-03	2.77279020e-09	5	3.07750850e-02	8.92440760e-09	5	false	DILUPBiCGStab	7.98221740e-03	1.14611770e-09	3	true	GAMG	1.21269520e-02	5.43046500e-04	2	true
62              	DILUPBiCGStab	2.93265710e-03	2.90966190e-09	5	3.08489070e-02	3.93865890e-09	6	false	DILUPBiCGStab	8.03137770e-03	1.30368720e-09	3	true	GAMG	1.18699450e-02	5.15616740e-04	2	true
63              	DILUPBiCGStab	2.89407800e-03	2.90332800e-09	5	3.04647380e-02	1.94233490e-09	6	false	DILUPBiCGStab	7.66237110e-03	1.53970230e-09	3	true	GAMG	1.15508420e-02	4.78166140e-04	2	true
64              	DILUPBiCGStab	2.79829430e-03	2.78813000e-09	5	2.96155320e-02	2.34093700e-09	6	false	DILUPBiCGStab	7.68107240e-03	2.43028190e-09	3	true	GAMG	1.12333880e-02	4.33316700e-04	2	true
65              	DILUPBiCGStab	2.70083610e-03	9.80317520e-09	5	2.83525950e-02	8.05963770e-09	5	false	DILUPBiCGStab	7.27523910e-03	6.69775470e-09	3	true	GAMG	1.08055780e-02	3.90676850e-04	2	true
66              	DILUPBiCGStab	2.54801400e-03	3.03257990e-09	5	2.67085070e-02	7.12727680e-09	6	false	DILUPBiCGStab	7.22025810e-03	7.41733790e-10	3	true	GAMG	1.02736990e-02	3.47017000e-04	2	true
67              	DILUPBiCGStab	2.41454380e-03	4.22454230e-09	5	2.49132890e-02	6.60890220e-09	6	false	DILUPBiCGStab	6.75119720e-03	8.11695150e-09	3	true	GAMG	9.78371600e-03	3.02543400e-04	2	true
68              	DILUPBiCGStab	2.26191950e-03	1.16081750e-09	6	2.32224990e-02	5.38439450e-09	6	false	DILUPBiCGStab	6.53149990e-03	6.32886050e-09	3	true	GAMG	9.36309210e-03	2.57799880e-04	2	true
69              	DILUPBiCGStab	2.16549390e-03	1.05928120e-09	6	2.14437240e-02	2.10866080e-09	6	false	DILUPBiCGStab	5.95169340e-03	5.68496700e-09	3	true	GAMG	8.93461430e-03	8.62360290e-04	1	true
70              	DILUPBiCGStab	1.98512460e-03	9.42434250e-09	5	1.82342440e-02	6.36411910e-09	6	false	DILUPBiCGStab	5.54973730e-03	5.47712950e-09	3	true	GAMG	8.80145340e-03	8.80065080e-04	1	true
71              	DILUPBiCGStab	1.90897970e-03	6.71134150e-09	5	1.78939120e-02	6.97826150e-09	6	false	DILUPBiCGStab	5.01470520e-03	4.92505240e-09	3	true	GAMG	8.11763740e-03	8.07718540e-04	1	true
72              	DILUPBiCGStab	1.84906080e-03	6.24311300e-09	5	1.69500820e-02	6.66470640e-09	6	false	DILUPBiCGStab	4.74373860e-03	4.82185830e-09	3	true	GAMG	7.53056610e-03	7.45441210e-04	1	true
73              	DILUPBiCGStab	1.83412010e-03	6.26091800e-09	5	1.54498850e-02	9.75177310e-09	5	false	DILUPBiCGStab	4.34172170e-03	5.37702150e-09	3	true	GAMG	7.16913310e-03	6.64045960e-04	1	true
74              	DILUPBiCGStab	1.78660880e-03	8.83446360e-09	4	1.40412970e-02	6.59968030e-09	5	false	DILUPBiCGStab	4.25551700e-03	4.52232650e-10	3	true	GAMG	6.79190390e-03	5.89889740e-04	1	true
75              	DILUPBiCGStab	1.74789920e-03	7.79584830e-09	4	1.26639250e-02	5.31128230e-09	5	false	DILUPBiCGStab	4.19597380e-03	6.11235770e-10	3	true	GAMG	6.43321470e-03	5.28752270e-04	1	true
76              	DILUPBiCGStab	1.65861540e-03	7.41675580e-09	4	1.14147680e-02	4.85842430e-09	5	false	DILUPBiCGStab	4.43699820e-03	5.15075420e-10	3	true	GAMG	6.06314340e-03	4.81058460e-04	1	true
77              	DILUPBiCGStab	1.58247550e-03	7.01792960e-09	4	1.02378900e-02	5.73304890e-09	5	false	DILUPBiCGStab	4.47654730e-03	6.73195490e-09	3	true	GAMG	5.71171680e-03	4.43574000e-04	1	true
78              	DILUPBiCGStab	1.46672730e-03	6.64940370e-09	4	9.22765000e-03	8.10856040e-09	5	false	DILUPBiCGStab	4.60875160e-03	4.73991500e-09	3	true	GAMG	5.34564720e-03	4.16181350e-04	1	true
79              	DILUPBiCGStab	1.37786330e-03	6.03337320e-09	4	8.32092610e-03	5.95206900e-09	5	false	DILUPBiCGStab	4.48407820e-03	3.27660030e-09	3	true	GAMG	4.95571740e-03	3.93916270e-04	1	true
80              	DILUPBiCGStab	1.25925880e-03	5.43850580e-09	4	7.52472930e-03	3.26826490e-09	5	false	DILUPBiCGStab	4.47341200e-03	2.72642080e-09	3	true	GAMG	4.56047430e-03	3.69717250e-04	1	true
81              	DILUPBiCGStab	1.17812260e-03	4.75808470e-09	4	6.83945440e-03	2.14213880e-09	5	false	DILUPBiCGStab	4.24524720e-03	2.23368940e-09	3	true	GAMG	4.17807990e-03	3.41309180e-04	1	true
82              	DILUPBiCGStab	1.06976130e-03	4.20881380e-09	4	6.21249210e-03	8.48436120e-09	5	false	DILUPBiCGStab	4.14338370e-03	2.06826160e-09	3	true	GAMG	3.79729300e-03	3.10392450e-04	1	true
83              	DILUPBiCGStab	1.00091080e-03	3.72289710e-09	4	5.66135870e-03	6.11800640e-09	5	false	DILUPBiCGStab	3.86227290e-03	1.88305930e-09	3	true	GAMG	3.41283320e-03	2.78355170e-04	1	true
84              	DILUPBiCGStab	9.06415280e-04	3.41593410e-09	4	5.15246700e-03	4.56349960e-09	5	false	DILUPBiCGStab	3.70703750e-03	1.88857770e-09	3	true	GAMG	3.07674640e-03	2.45238610e-04	1	true
85              	DILUPBiCGStab	8.50083160e-04	3.18895280e-09	4	4.67505780e-03	3.92078580e-09	5	false	DILUPBiCGStab	3.42051910e-03	1.81941660e-09	3	true	GAMG	2.76473190e-03	2.13343230e-04	1	true
86              	DILUPBiCGStab	7.68329090e-04	3.01095320e-09	4	4.21445920e-03	3.45685430e-09	5	false	DILUPBiCGStab	3.25090470e-03	1.88978200e-09	3	true	GAMG	2.49880450e-03	1.84005590e-04	1	true
87              	DILUPBiCGStab	7.25999260e-04	2.82649510e-09	4	3.78837700e-03	3.01301550e-09	5	false	DILUPBiCGStab	2.99267500e-03	1.81413210e-09	3	true	GAMG	2.25359250e-03	1.57248700e-04	1	true
88              	DILUPBiCGStab	6.56889540e-04	9.24215600e-09	4	3.39612170e-03	9.58785770e-09	4	false	DILUPBiCGStab	2.82778240e-03	1.90454000e-09	3	true	GAMG	2.04884030e-03	1.33783900e-04	1	true
89              	DILUPBiCGStab	6.23167740e-04	8.36958080e-09	4	3.03799610e-03	6.95952600e-09	4	false	DILUPBiCGStab	2.60471170e-03	1.75960380e-09	3	true	GAMG	1.88999410e-03	1.14555770e-04	1	true
90              	DILUPBiCGStab	5.62965980e-04	7.43050760e-09	4	2.70382930e-03	5.85617370e-09	4	false	DILUPBiCGStab	2.44850820e-03	1.83723620e-09	3	true	GAMG	1.74571220e-03	1.04062800e-04	1	true
91              	DILUPBiCGStab	5.39075480e-04	6.55638450e-09	4	2.40729160e-03	5.28901810e-09	4	false	DILUPBiCGStab	2.26223590e-03	1.59961230e-09	3	true	GAMG	1.62018270e-03	9.75786950e-05	1	true
92              	DILUPBiCGStab	4.90837420e-04	5.74074260e-09	4	2.14552860e-03	5.35422030e-09	4	false	DILUPBiCGStab	2.11488890e-03	1.65491550e-09	3	true	GAMG	1.51054720e-03	9.12548030e-05	1	true
93              	DILUPBiCGStab	4.77827560e-04	5.15590970e-09	4	1.91481790e-03	6.10869960e-09	4	false	DILUPBiCGStab	1.95957830e-03	1.35394410e-09	3	true	GAMG	1.39571680e-03	8.24369340e-05	1	true
94              	DILUPBiCGStab	4.41286950e-04	4.72525530e-09	4	1.71266490e-03	8.00076620e-09	4	false	DILUPBiCGStab	1.81911370e-03	1.38846680e-09	3	true	GAMG	1.28581220e-03	7.25356530e-05	1	true
95              	DILUPBiCGStab	4.39519760e-04	4.51716070e-09	4	1.54386200e-03	1.03717510e-09	5	false	DILUPBiCGStab	1.69127020e-03	1.07743650e-09	3	true	GAMG	1.17705600e-03	6.51759620e-05	1	true
96              	DILUPBiCGStab	4.08014850e-04	4.37591900e-09	4	1.39781370e-03	1.01113020e-09	5	false	DILUPBiCGStab	1.55377880e-03	1.10331210e-09	3	true	GAMG	1.07259350e-03	6.03991160e-05	1	true
97              	DILUPBiCGStab	4.05221620e-04	4.18335000e-09	4	1.27297760e-03	8.36144750e-10	5	false	DILUPBiCGStab	1.44558900e-03	8.16091840e-10	3	true	GAMG	9.76840090e-04	5.60358890e-05	1	true
98              	DILUPBiCGStab	3.72256210e-04	3.85785810e-09	4	1.15539280e-03	6.86583100e-10	5	false	DILUPBiCGStab	1.31062940e-03	8.36685010e-10	3	true	GAMG	8.90961730e-04	5.16791450e-05	1	true
99              	DILUPBiCGStab	3.70315330e-04	3.46666600e-09	4	1.05432390e-03	8.71700890e-09	4	false	DILUPBiCGStab	1.22335030e-03	5.93042640e-10	3	true	GAMG	8.11136820e-04	4.70958810e-05	1	true
100             	DILUPBiCGStab	3.40608470e-04	3.18548120e-09	4	9.65100030e-04	3.72293170e-09	4	false	DILUPBiCGStab	1.09383650e-03	6.13104540e-10	3	true	GAMG	7.33291850e-04	4.31060680e-05	1	true
101             	DILUPBiCGStab	3.42297970e-04	3.04383810e-09	4	8.87914330e-04	9.06354430e-09	4	false	DILUPBiCGStab	1.02796560e-03	9.09089630e-09	2	true	GAMG	6.56383300e-04	3.90253600e-05	1	true
102             	DILUPBiCGStab	3.15480800e-04	2.78664560e-09	4	8.15851280e-04	5.08314070e-09	4	false	DILUPBiCGStab	9.06404460e-04	9.04355930e-09	2	true	GAMG	5.87274470e-04	3.47398770e-05	1	true
103             	DILUPBiCGStab	3.19445370e-04	2.63639650e-09	4	7.56708620e-04	4.23864740e-09	4	false	DILUPBiCGStab	8.61563970e-04	6.87439160e-09	2	true	GAMG	5.34872880e-04	3.12383420e-05	1	true
104             	DILUPBiCGStab	2.95083460e-04	5.38305490e-09	3	6.93729830e-04	4.23271210e-09	4	false	DILUPBiCGStab	7.49024340e-04	6.64433580e-09	2	true	GAMG	4.87209910e-04	2.80131790e-05	1	true
105             	DILUPBiCGStab	3.01084100e-04	3.36138010e-09	3	6.38511470e-04	4.28913050e-09	4	false	DILUPBiCGStab	7.23651730e-04	5.28108550e-09	2	true	GAMG	4.45348580e-04	2.65015560e-05	1	true
106             	DILUPBiCGStab	2.79540160e-04	2.69437620e-09	3	5.86805240e-04	3.91214520e-09	4	false	DILUPBiCGStab	6.19951300e-04	4.98402090e-09	2	true	GAMG	4.10885380e-04	2.53121710e-05	1	true
107             	DILUPBiCGStab	2.88365790e-04	2.35219830e-09	3	5.39524420e-04	4.32430460e-09	4	false	DILUPBiCGStab	6.11630400e-04	4.18562860e-09	2	true	GAMG	3.79118560e-04	2.42888690e-05	1	true
108             	DILUPBiCGStab	2.69818360e-04	2.47248200e-09	3	4.94202470e-04	4.19284430e-09	4	false	DILUPBiCGStab	5.16041700e-04	3.81816820e-09	2	true	GAMG	3.45730750e-04	2.33959110e-05	1	true
109             	DILUPBiCGStab	2.80306120e-04	2.63806210e-09	3	4.61313910e-04	4.17553790e-09	4	false	DILUPBiCGStab	5.22056500e-04	3.39584180e-09	2	true	GAMG	3.19413760e-04	2.23325580e-05	1	true
110             	DILUPBiCGStab	2.62228330e-04	2.76477710e-09	3	4.31511110e-04	4.17422730e-09	4	false	DILUPBiCGStab	4.33531020e-04	3.00665090e-09	2	true	GAMG	2.94176140e-04	2.12495670e-05	1	true
111             	DILUPBiCGStab	2.72966770e-04	9.79989170e-09	3	4.08533130e-04	3.50125920e-09	4	false	DILUPBiCGStab	4.51454800e-04	2.82654590e-09	2	true	GAMG	2.75919940e-04	2.00469190e-05	1	true
112             	DILUPBiCGStab	2.55352190e-04	8.43331960e-09	3	3.84227830e-04	9.12264660e-09	3	false	DILUPBiCGStab	3.69018150e-04	2.44784890e-09	2	true	GAMG	2.56874470e-04	1.78971110e-05	1	true
113             	DILUPBiCGStab	2.66142500e-04	7.22718880e-09	3	3.64367320e-04	8.26868700e-09	3	false	DILUPBiCGStab	3.96701200e-04	2.40003290e-09	2	true	GAMG	2.40578310e-04	1.65397360e-05	1	true
114             	DILUPBiCGStab	2.48919890e-04	5.91128990e-09	3	3.37738410e-04	8.07887620e-09	3	false	DILUPBiCGStab	3.19471530e-04	2.08797430e-09	2	true	GAMG	2.23214890e-04	1.53285530e-05	1	true
115             	DILUPBiCGStab	2.59996610e-04	5.68935880e-09	3	3.16115250e-04	7.81119970e-09	3	false	DILUPBiCGStab	3.55314300e-04	2.06169980e-09	2	true	GAMG	2.06970310e-04	1.40220890e-05	1	true
116             	DILUPBiCGStab	2.43523090e-04	5.60508800e-09	3	2.93862840e-04	7.78576830e-09	3	false	DILUPBiCGStab	2.82170710e-04	1.82326610e-09	2	true	GAMG	1.92392640e-04	1.30353720e-05	1	true
117             	DILUPBiCGStab	2.55165000e-04	5.62475820e-09	3	2.81026900e-04	7.45936300e-09	3	false	DILUPBiCGStab	3.24299090e-04	1.77492160e-09	2	true	GAMG	1.79381700e-04	1.18732400e-05	1	true
118             	DILUPBiCGStab	2.39321150e-04	5.66356440e-09	3	2.66678880e-04	7.88591740e-09	3	false	DILUPBiCGStab	2.53983680e-04	1.58175890e-09	2	true	GAMG	1.68566930e-04	1.10070560e-05	1	true
119             	DILUPBiCGStab	2.51462750e-04	5.43696780e-09	3	2.58957910e-04	7.62250480e-09	3	false	DILUPBiCGStab	3.00694090e-04	1.51843040e-09	2	true	GAMG	1.57767350e-04	1.02561190e-05	1	true
120             	DILUPBiCGStab	2.35938920e-04	5.52142320e-09	3	2.45289970e-04	7.75672580e-09	3	false	DILUPBiCGStab	2.32180790e-04	1.35774140e-09	2	true	GAMG	1.50854570e-04	9.54070400e-06	1	true
121             	DILUPBiCGStab	2.48542140e-04	5.03796410e-09	3	2.37326600e-04	7.28351250e-09	3	false	DILUPBiCGStab	2.82214750e-04	1.28396910e-09	2	true	GAMG	1.42159550e-04	8.84397040e-06	1	true
122             	DILUPBiCGStab	2.33326650e-04	5.08506340e-09	3	2.24702540e-04	6.92429620e-09	3	false	DILUPBiCGStab	2.14914290e-04	1.15308220e-09	2	true	GAMG	1.36344920e-04	8.08795610e-06	1	true
123             	DILUPBiCGStab	2.46273310e-04	4.50950850e-09	3	2.18071550e-04	6.29362360e-09	3	false	DILUPBiCGStab	2.67393110e-04	1.07034190e-09	2	true	GAMG	1.29100900e-04	7.51633820e-06	1	true
124             	DILUPBiCGStab	2.31303440e-04	4.59271480e-09	3	2.07517730e-04	5.51924900e-09	3	false	DILUPBiCGStab	2.00978380e-04	9.67019170e-10	2	true	GAMG	1.24210870e-04	7.30827240e-06	1	true
125             	DILUPBiCGStab	2.44425770e-04	4.03404240e-09	3	2.02164410e-04	5.02024340e-09	3	false	DILUPBiCGStab	2.55249660e-04	8.80807910e-10	2	true	GAMG	1.16854430e-04	7.10694560e-06	1	true
126             	DILUPBiCGStab	2.29351510e-04	4.06240800e-09	3	1.92535250e-04	4.29886180e-09	3	false	DILUPBiCGStab	1.89480560e-04	7.99701820e-10	2	true	GAMG	1.11227490e-04	6.97876280e-06	1	true
127             	DILUPBiCGStab	2.42652270e-04	3.76215410e-09	3	1.88032430e-04	4.22396160e-09	3	false	DILUPBiCGStab	2.45134010e-04	7.18748360e-10	2	true	GAMG	1.03549740e-04	6.92507830e-06	1	true
128             	DILUPBiCGStab	2.27609160e-04	4.34583950e-09	3	1.79897790e-04	3.56483580e-09	3	false	DILUPBiCGStab	1.79992780e-04	6.55390050e-10	2	true	GAMG	9.81117030e-05	6.53198730e-06	1	true
129             	DILUPBiCGStab	2.40985540e-04	4.14227700e-09	3	1.75688130e-04	4.03568740e-09	3	false	DILUPBiCGStab	2.36809010e-04	5.84289700e-10	2	true	GAMG	9.21774220e-05	6.34523610e-06	1	true
130             	DILUPBiCGStab	2.25923380e-04	4.05750890e-09	3	1.67256260e-04	3.16876600e-09	4	false	DILUPBiCGStab	1.72321640e-04	5.33651230e-10	2	true	GAMG	8.75956600e-05	5.62448140e-06	1	true
131             	DILUPBiCGStab	2.39400520e-04	9.13695330e-09	2	1.62858850e-04	4.38638840e-09	3	false	DILUPBiCGStab	2.30184330e-04	9.42099890e-09	2	true	GAMG	8.32858620e-05	5.21798290e-06	1	true
132             	DILUPBiCGStab	2.24462900e-04	8.44203720e-09	2	1.54268240e-04	3.83065450e-09	3	false	DILUPBiCGStab	1.66279400e-04	8.69211870e-09	2	true	GAMG	7.92715710e-05	4.44998190e-06	1	true
133             	DILUPBiCGStab	2.38007490e-04	7.64420380e-09	2	1.50178730e-04	6.57084620e-09	3	false	DILUPBiCGStab	2.24984410e-04	7.58653080e-09	2	true	GAMG	7.59226750e-05	3.90687660e-06	1	true
134             	DILUPBiCGStab	2.23110280e-04	6.88233260e-09	2	1.41061650e-04	3.84939070e-09	3	false	DILUPBiCGStab	1.61546050e-04	6.95852120e-09	2	true	GAMG	7.20110180e-05	3.42067730e-06	1	true
135             	DILUPBiCGStab	2.36705320e-04	6.48117010e-09	2	1.38516930e-04	9.56635160e-10	4	false	DILUPBiCGStab	2.20898680e-04	6.01325720e-09	2	true	GAMG	6.91695910e-05	2.74180940e-06	1	true
136             	DILUPBiCGStab	2.21830800e-04	5.86963440e-09	2	1.30198460e-04	3.03738730e-09	3	false	DILUPBiCGStab	1.57798120e-04	5.48703640e-09	2	true	GAMG	6.51694660e-05	2.70136520e-06	1	true
137             	DILUPBiCGStab	2.35442250e-04	5.74802690e-09	2	1.28774270e-04	5.07681070e-09	3	false	DILUPBiCGStab	2.17650970e-04	4.72455840e-09	2	true	GAMG	6.26012260e-05	2.50279940e-06	1	true
138             	DILUPBiCGStab	2.20681250e-04	5.12785980e-09	2	1.20349100e-04	2.70119840e-09	3	false	DILUPBiCGStab	1.54800490e-04	4.32740210e-09	2	true	GAMG	5.90728700e-05	2.69604870e-06	1	true
139             	DILUPBiCGStab	2.34399740e-04	5.00522550e-09	2	1.19928420e-04	2.77070270e-09	3	false	DILUPBiCGStab	2.15086590e-04	3.75127150e-09	2	true	GAMG	5.68522060e-05	2.63340740e-06	1	true
140             	DILUPBiCGStab	2.19852930e-04	4.46712350e-09	2	1.11373340e-04	9.38106080e-09	3	false	DILUPBiCGStab	1.52409600e-04	3.45037110e-09	2	true	GAMG	5.36935860e-05	2.81432870e-06	1	true
141             	DILUPBiCGStab	2.33614350e-04	4.48003240e-09	2	1.13235510e-04	7.98150170e-09	3	false	DILUPBiCGStab	2.13062180e-04	3.02620450e-09	2	true	GAMG	5.13431460e-05	2.76820770e-06	1	true
142             	DILUPBiCGStab	2.19123050e-04	4.15331190e-09	2	1.05092510e-04	8.40335630e-09	3	false	DILUPBiCGStab	1.50512950e-04	2.81262260e-09	2	true	GAMG	4.87162470e-05	2.85300370e-06	1	true
143             	DILUPBiCGStab	2.32936100e-04	4.21025130e-09	2	1.07930760e-04	9.80754930e-09	3	false	DILUPBiCGStab	2.11471460e-04	2.50764220e-09	2	true	GAMG	4.63431690e-05	2.68407650e-06	1	true
144             	DILUPBiCGStab	2.18472290e-04	4.03734370e-09	2	9.94073600e-05	8.47892390e-09	3	false	DILUPBiCGStab	1.49036470e-04	2.36163210e-09	2	true	GAMG	4.39385170e-05	2.61382710e-06	1	true
145             	DILUPBiCGStab	2.32323120e-04	3.93973730e-09	2	1.02113990e-04	2.85179610e-09	3	false	DILUPBiCGStab	2.10231930e-04	2.14980000e-09	2	true	GAMG	4.13458820e-05	2.41460750e-06	1	true
146             	DILUPBiCGStab	2.17922420e-04	3.98959520e-09	2	9.41245420e-05	7.56010350e-09	3	false	DILUPBiCGStab	1.47909670e-04	2.04915170e-09	2	true	GAMG	3.97164050e-05	2.18673510e-06	1	true
147             	DILUPBiCGStab	2.31771240e-04	3.74668040e-09	2	9.67238110e-05	9.40564620e-09	3	false	DILUPBiCGStab	2.09294700e-04	1.89744120e-09	2	true	GAMG	3.73091500e-05	2.13755280e-06	1	true
148             	DILUPBiCGStab	2.17433950e-04	3.99015620e-09	2	8.96492810e-05	7.36333070e-09	3	false	DILUPBiCGStab	1.47082940e-04	1.81465380e-09	2	true	GAMG	3.61524310e-05	1.80579080e-06	1	true
149             	DILUPBiCGStab	2.31269660e-04	3.80337990e-09	2	9.20950370e-05	7.41621070e-09	3	false	DILUPBiCGStab	2.08605270e-04	1.67897050e-09	2	true	GAMG	3.39528400e-05	1.88892510e-06	1	true
150             	DILUPBiCGStab	2.16979930e-04	4.10176170e-09	2	8.56526180e-05	7.15753350e-09	3	false	DILUPBiCGStab	1.46471980e-04	1.58595390e-09	2	true	GAMG	3.32742430e-05	1.65756790e-06	1	true
151             	DILUPBiCGStab	2.30752050e-04	3.84370670e-09	2	8.76750650e-05	6.76023610e-09	3	false	DILUPBiCGStab	2.08077870e-04	1.44322570e-09	2	true	GAMG	3.12995420e-05	1.79816890e-06	1	true
152             	DILUPBiCGStab	2.16395650e-04	4.10203230e-09	2	8.18828300e-05	7.72723050e-09	3	false	DILUPBiCGStab	1.45979510e-04	1.30313510e-09	2	true	GAMG	3.06610560e-05	1.62314480e-06	1	true